/*--------------------------------*- C++ -*----------------------------------*\
| =========                 |                                                 |
| \\      /  F ield         | OpenFOAM: The Open Source CFD Toolbox           |
|  \\    /   O peration     | Version:  v1806                                 |
|   \\  /    A nd           | Web:      www.OpenFOAM.com                      |
|    \\/     M anipulation  |                                                 |
\*---------------------------------------------------------------------------*/
FoamFile
{
    version     2.0;
    format      ascii;
    class       volScalarField;
    location    "145";
    object      p;
}
// * * * * * * * * * * * * * * * * * * * * * * * * * * * * * * * * * * * * * //

dimensions      [0 2 -2 0 0 0 0];


internalField   nonuniform List<scalar> 
2000
(
0.00206429
0.00177057
0.00152525
0.00140015
0.00131617
0.00122473
0.00112783
0.00103594
0.00094992
0.000866349
0.000783282
0.0007005
0.000618256
0.000536766
0.000456296
0.000376539
0.000299802
0.000220269
0.000165269
7.41604e-06
0.00183852
0.00162694
0.00144077
0.00133797
0.00126404
0.00118276
0.0010954
0.00101039
0.000928967
0.000848769
0.000768367
0.000687676
0.000607034
0.000526697
0.000446748
0.000366807
0.000287486
0.000206436
0.000131549
2.85538e-05
0.001786
0.00162948
0.00147662
0.00137661
0.0012975
0.00121381
0.00112529
0.00103811
0.000953766
0.000870752
0.000787887
0.000705004
0.000622392
0.000540293
0.000458714
0.000377297
0.00029684
0.000215321
0.000144264
3.17597e-05
0.00176229
0.00160591
0.00145431
0.00135249
0.00127121
0.00118763
0.00110071
0.00101522
0.00093238
0.000850925
0.000769727
0.000688486
0.000607393
0.000526667
0.000446329
0.000366079
0.000286721
0.000206355
0.00013651
2.45308e-05
0.00174983
0.00159316
0.00144717
0.00135236
0.00127579
0.00119501
0.0011099
0.00102538
0.000942772
0.000861095
0.000779467
0.000697662
0.000615873
0.000534369
0.000453258
0.000372308
0.000292319
0.000211332
0.000140588
2.71105e-05
0.00174983
0.00159316
0.00144717
0.00135236
0.00127579
0.00119501
0.0011099
0.00102538
0.000942771
0.00086109
0.000779467
0.000697668
0.00061588
0.000534369
0.000453247
0.000372291
0.000292305
0.000211331
0.000140597
2.71196e-05
0.00176229
0.00160591
0.00145431
0.00135249
0.00127121
0.00118763
0.00110071
0.00101522
0.000932378
0.000850918
0.000769724
0.000688493
0.000607404
0.000526668
0.000446308
0.000366043
0.000286691
0.000206351
0.000136531
2.4551e-05
0.001786
0.00162948
0.00147662
0.00137661
0.0012975
0.0012138
0.00112528
0.00103811
0.000953771
0.000870754
0.00078788
0.000704995
0.000622391
0.000540291
0.000458697
0.000377263
0.000296812
0.000215323
0.000144292
3.17816e-05
0.00183852
0.00162694
0.00144077
0.00133797
0.00126404
0.00118276
0.00109539
0.00101038
0.000928976
0.00084878
0.000768363
0.00068766
0.000607021
0.000526688
0.000446729
0.000366776
0.000287468
0.000206459
0.000131602
2.85915e-05
0.00206429
0.00177057
0.00152525
0.00140015
0.00131617
0.00122473
0.00112783
0.00103593
0.000949922
0.000866357
0.000783281
0.000700486
0.00061824
0.000536748
0.000456261
0.000376486
0.000299765
0.000220285
0.000165326
7.46701e-06
0.00183852
0.00162694
0.00144077
0.00133797
0.00126404
0.00118276
0.00109538
0.00101038
0.000928992
0.000848796
0.000768353
0.000687629
0.000606997
0.000526683
0.000446729
0.000366759
0.000287428
0.000206409
0.000131536
2.85795e-05
0.00161274
0.0014833
0.00135634
0.00127585
0.00121199
0.00114093
0.00106312
0.000985004
0.000908235
0.000831431
0.000753665
0.00067507
0.000596101
0.000516967
0.000437503
0.000357293
0.000275325
0.000192778
9.76257e-05
5.03274e-05
0.00156024
0.00148587
0.00139224
0.00131454
0.00124553
0.00117204
0.00109304
0.00101276
0.000933095
0.000853454
0.000773176
0.000692382
0.000611473
0.000530573
0.000449419
0.00036768
0.000284586
0.000201621
0.000110455
5.34535e-05
0.00153653
0.0014623
0.00136991
0.0012904
0.00121921
0.0011458
0.0010684
0.000989844
0.00091169
0.000833591
0.000754977
0.000675857
0.000596491
0.000516948
0.000436998
0.000356428
0.000274492
0.000192756
0.000102818
4.62575e-05
0.00152407
0.00144955
0.00136277
0.00129028
0.0012238
0.00115322
0.00107766
0.00100006
0.000922088
0.000843752
0.00076475
0.000685114
0.000605056
0.000524692
0.000443923
0.000362645
0.00028011
0.000197788
0.000106957
4.88494e-05
0.00152407
0.00144955
0.00136277
0.00129028
0.0012238
0.00115322
0.00107766
0.00100006
0.000922086
0.000843755
0.000764753
0.000685111
0.000605051
0.000524691
0.000443924
0.000362642
0.000280101
0.000197782
0.000106959
4.88536e-05
0.00153652
0.0014623
0.00136991
0.0012904
0.00121921
0.0011458
0.0010684
0.000989837
0.000911687
0.000833597
0.000754982
0.000675853
0.000596484
0.000516947
0.000436997
0.000356415
0.000274471
0.000192747
0.00010283
4.62708e-05
0.00156024
0.00148587
0.00139224
0.00131454
0.00124553
0.00117204
0.00109304
0.00101276
0.000933089
0.000853449
0.000773176
0.000692385
0.000611476
0.000530571
0.000449405
0.000367653
0.000284564
0.000201629
0.000110491
5.3477e-05
0.00161274
0.0014833
0.00135634
0.00127584
0.00121199
0.00114093
0.00106312
0.000985007
0.000908223
0.000831412
0.000753661
0.000675088
0.000596121
0.00051696
0.000437462
0.000357245
0.000275316
0.000192832
9.77166e-05
5.03807e-05
0.00183852
0.00162694
0.00144077
0.00133797
0.00126404
0.00118276
0.00109539
0.00101038
0.000928974
0.000848769
0.000768349
0.000687657
0.000607025
0.000526667
0.000446658
0.000366678
0.000287405
0.00020648
0.000131659
2.86628e-05
0.001786
0.00162948
0.00147662
0.00137661
0.0012975
0.00121379
0.00112527
0.00103811
0.000953801
0.00087077
0.000787859
0.000704964
0.000622372
0.000540246
0.000458586
0.000377144
0.000296816
0.000215519
0.000144559
3.19606e-05
0.00156024
0.00148587
0.00139224
0.00131454
0.00124553
0.00117204
0.00109304
0.00101277
0.000933102
0.000853446
0.000773167
0.000692394
0.000611485
0.000530528
0.0004493
0.000367575
0.000284632
0.000201869
0.000110782
5.36353e-05
0.00150773
0.00148844
0.00142812
0.00135321
0.00127903
0.00120309
0.00112289
0.00104049
0.000957948
0.000875416
0.000792575
0.000709615
0.000626818
0.000544107
0.000461164
0.000377915
0.00029391
0.000210796
0.000123656
5.68082e-05
0.00148402
0.00146486
0.0014058
0.00132908
0.00125272
0.00117686
0.00109828
0.00101761
0.000936574
0.000855569
0.000774401
0.000693138
0.00061188
0.000530482
0.000448711
0.000366662
0.000283896
0.000202062
0.000116115
4.96318e-05
0.00147156
0.00145211
0.00139866
0.00132896
0.0012573
0.00118429
0.00110755
0.0010278
0.000946911
0.000865699
0.000784198
0.000702437
0.000620444
0.000538161
0.000455537
0.00037281
0.000289511
0.000207142
0.000120301
5.22434e-05
0.00147156
0.00145211
0.00139865
0.00132896
0.0012573
0.00118429
0.00110754
0.00102779
0.000946915
0.000865709
0.000784196
0.00070242
0.000620436
0.000538179
0.000455565
0.000372816
0.000289484
0.000207102
0.000120276
5.22388e-05
0.00148402
0.00146486
0.0014058
0.00132908
0.00125272
0.00117686
0.00109828
0.00101761
0.000936579
0.000855585
0.000774397
0.000693108
0.000611865
0.000530516
0.000448763
0.00036667
0.00028384
0.000201983
0.000116068
4.96255e-05
0.00150772
0.00148844
0.00142812
0.00135321
0.00127903
0.00120309
0.00112289
0.00104048
0.000957938
0.000875417
0.00079258
0.000709612
0.000626817
0.000544123
0.000461182
0.000377905
0.000293864
0.000210748
0.000123636
5.68097e-05
0.00156023
0.00148587
0.00139224
0.00131454
0.00124553
0.00117204
0.00109305
0.00101277
0.000933077
0.000853426
0.000773181
0.000692429
0.000611507
0.000530516
0.000449267
0.000367544
0.000284623
0.000201889
0.000110817
5.36531e-05
0.001786
0.00162948
0.00147662
0.00137661
0.0012975
0.0012138
0.00112528
0.00103811
0.000953771
0.000870736
0.000787868
0.000705014
0.000622405
0.000540221
0.00045852
0.000377094
0.000296823
0.000215582
0.000144633
3.19974e-05
0.00176229
0.00160591
0.00145431
0.00135249
0.00127121
0.00118762
0.00110071
0.00101523
0.000932381
0.000850895
0.000769708
0.000688528
0.000607433
0.000526546
0.000445999
0.000365756
0.000286741
0.000206844
0.000137154
2.48984e-05
0.00153653
0.0014623
0.00136992
0.0012904
0.0012192
0.00114581
0.00106843
0.000989859
0.000911659
0.000833538
0.000754985
0.000675951
0.000596554
0.000516813
0.000436667
0.000356159
0.000274606
0.000193322
0.000103511
4.66079e-05
0.00148402
0.00146486
0.0014058
0.00132908
0.00125271
0.00117687
0.00109831
0.00101762
0.000936533
0.000855526
0.000774422
0.000693221
0.000611926
0.000530387
0.000448498
0.000366505
0.000283975
0.000202389
0.000116483
4.97964e-05
0.00146031
0.00144129
0.00138349
0.00130495
0.0012264
0.00115066
0.0010737
0.000994722
0.000915134
0.000835669
0.000756254
0.000676745
0.000596963
0.000516716
0.000436011
0.000355275
0.000274043
0.00019374
0.000108972
4.25916e-05
0.00144785
0.00142854
0.00137634
0.00130483
0.00123099
0.00115808
0.00108295
0.0010049
0.000925488
0.000845836
0.00076608
0.000686043
0.000605506
0.00052438
0.000442853
0.000361469
0.000279715
0.000198855
0.000113155
4.51833e-05
0.00144785
0.00142854
0.00137634
0.00130483
0.00123099
0.00115808
0.00108295
0.0010049
0.000925494
0.000845841
0.000766068
0.000686022
0.000605509
0.000524419
0.000442896
0.000361468
0.00027966
0.000198785
0.000113115
4.51816e-05
0.00146031
0.00144129
0.00138349
0.00130495
0.0012264
0.00115066
0.0010737
0.000994717
0.000915143
0.00083568
0.000756231
0.000676702
0.000596965
0.000516796
0.000436103
0.000355276
0.00027393
0.000193589
0.000108881
4.25849e-05
0.00148402
0.00146486
0.0014058
0.00132908
0.00125271
0.00117687
0.0010983
0.00101761
0.000936536
0.000855536
0.000774414
0.000693193
0.00061192
0.00053044
0.000448573
0.000366521
0.000283895
0.000202262
0.000116391
4.97756e-05
0.00153652
0.0014623
0.00136991
0.0012904
0.0012192
0.00114581
0.00106842
0.000989852
0.000911651
0.000833541
0.000754996
0.00067595
0.000596541
0.000516817
0.000436706
0.000356205
0.000274609
0.000193265
0.000103431
4.65606e-05
0.00176229
0.00160591
0.00145431
0.00135248
0.00127121
0.00118762
0.00110071
0.00101522
0.000932366
0.000850891
0.000769723
0.000688538
0.000607415
0.000526525
0.000446022
0.000365829
0.000286808
0.000206843
0.000137094
2.48391e-05
0.00174983
0.00159316
0.00144717
0.00135236
0.00127579
0.00119501
0.00110991
0.00102538
0.000942737
0.000861045
0.000779485
0.000697775
0.000615944
0.000534189
0.000452812
0.000371917
0.000292405
0.000212008
0.000141419
2.75559e-05
0.00152407
0.00144955
0.00136277
0.00129028
0.00122379
0.00115323
0.00107769
0.00100007
0.000922025
0.000843683
0.000764791
0.000685268
0.00060514
0.000524498
0.000443489
0.000362326
0.000280302
0.000198539
0.000107827
4.92681e-05
0.00147156
0.00145211
0.00139866
0.00132895
0.0012573
0.0011843
0.00110758
0.00102779
0.000946838
0.00086564
0.000784249
0.000702575
0.00062051
0.000538012
0.000455232
0.000372611
0.000289668
0.000207646
0.000120834
5.24685e-05
0.00144785
0.00142854
0.00137634
0.00130483
0.00123099
0.00115809
0.00108296
0.00100488
0.000925454
0.00084582
0.000766111
0.000686102
0.000605531
0.00052433
0.00044276
0.000361422
0.000279785
0.000199023
0.000113316
4.52445e-05
0.0014354
0.00141579
0.0013692
0.0013047
0.00123558
0.0011655
0.00109221
0.00101509
0.000935846
0.000855986
0.000775879
0.00069532
0.000614031
0.000532021
0.000449683
0.000367701
0.000285495
0.000204108
0.000117422
4.77665e-05
0.0014354
0.00141579
0.0013692
0.0013047
0.00123558
0.0011655
0.00109221
0.00101509
0.000935848
0.000855985
0.000775867
0.000695307
0.000614043
0.000532063
0.000449717
0.000367684
0.000285426
0.000204035
0.000117391
4.77765e-05
0.00144785
0.00142854
0.00137634
0.00130483
0.00123099
0.00115809
0.00108296
0.00100488
0.000925461
0.000845821
0.000766085
0.00068607
0.000605553
0.000524423
0.000442843
0.000361394
0.000279636
0.000198854
0.000113231
4.52566e-05
0.00147156
0.00145211
0.00139865
0.00132895
0.0012573
0.0011843
0.00110757
0.00102779
0.00094685
0.000865645
0.000784224
0.000702534
0.000620514
0.000538092
0.000455332
0.000372626
0.000289555
0.000207471
0.000120709
5.24447e-05
0.00152407
0.00144955
0.00136277
0.00129028
0.00122379
0.00115322
0.00107769
0.00100007
0.000922039
0.000843695
0.000764778
0.000685227
0.00060511
0.000524534
0.000443592
0.000362418
0.000280291
0.000198407
0.000107659
4.91785e-05
0.00174983
0.00159316
0.00144716
0.00135236
0.00127579
0.00119501
0.0011099
0.00102538
0.000942748
0.000861064
0.000779484
0.000697733
0.000615886
0.00053419
0.000452918
0.000372075
0.000292486
0.000211928
0.000141246
2.74296e-05
0.00174983
0.00159316
0.00144717
0.00135236
0.00127579
0.00119501
0.0011099
0.00102538
0.000942748
0.000861058
0.000779478
0.000697747
0.000615928
0.000534221
0.000452887
0.000371983
0.000292404
0.000211929
0.000141315
2.74983e-05
0.00152407
0.00144955
0.00136277
0.00129028
0.00122379
0.00115323
0.00107768
0.00100006
0.000922039
0.000843703
0.000764782
0.000685228
0.000605117
0.000524542
0.000443588
0.000362406
0.000280292
0.000198433
0.000107697
4.91977e-05
0.00147156
0.00145211
0.00139866
0.00132895
0.0012573
0.0011843
0.00110756
0.00102778
0.00094686
0.000865667
0.000784234
0.000702519
0.000620483
0.000538074
0.000455355
0.000372694
0.000289631
0.000207499
0.000120676
5.23954e-05
0.00144785
0.00142854
0.00137634
0.00130483
0.00123099
0.00115808
0.00108295
0.00100488
0.000925478
0.000845844
0.000766088
0.000686042
0.000605514
0.000524411
0.000442893
0.00036149
0.000279714
0.000198848
0.000113151
4.51814e-05
0.0014354
0.00141579
0.0013692
0.0013047
0.00123558
0.00116549
0.0010922
0.00101509
0.000935866
0.000856003
0.000775854
0.000695269
0.000614027
0.00053211
0.000449809
0.000367751
0.000285406
0.000203925
0.000117262
4.77137e-05
0.0014354
0.00141579
0.0013692
0.0013047
0.00123558
0.0011655
0.0010922
0.00101508
0.000935866
0.000856006
0.00077585
0.000695259
0.000614033
0.00053214
0.000449836
0.000367738
0.000285349
0.000203864
0.000117235
4.77215e-05
0.00144785
0.00142854
0.00137634
0.00130483
0.00123099
0.00115808
0.00108295
0.00100488
0.000925481
0.000845851
0.000766076
0.000686017
0.000605524
0.00052448
0.00044296
0.000361469
0.000279591
0.000198704
0.000113078
4.51907e-05
0.00147156
0.00145211
0.00139865
0.00132895
0.0012573
0.0011843
0.00110756
0.00102778
0.000946866
0.000865673
0.000784221
0.00070249
0.000620484
0.000538136
0.000455435
0.000372704
0.000289531
0.000207345
0.000120566
5.23749e-05
0.00152407
0.00144955
0.00136277
0.00129028
0.00122379
0.00115322
0.00107768
0.00100006
0.000922046
0.000843711
0.000764777
0.000685202
0.000605096
0.000524569
0.000443669
0.000362479
0.000280277
0.000198313
0.000107546
4.91201e-05
0.00174983
0.00159316
0.00144716
0.00135236
0.00127579
0.001195
0.0011099
0.00102538
0.000942754
0.00086107
0.000779479
0.000697719
0.000615884
0.000534219
0.000452972
0.000372114
0.000292472
0.000211857
0.000141161
2.73875e-05
0.00176229
0.00160591
0.00145431
0.00135249
0.00127121
0.00118762
0.00110071
0.00101523
0.000932398
0.000850907
0.000769679
0.000688464
0.000607403
0.000526624
0.000446172
0.000365912
0.000286758
0.000206693
0.000136941
2.47752e-05
0.00153652
0.0014623
0.00136991
0.0012904
0.0012192
0.00114581
0.00106842
0.000989855
0.00091168
0.000833563
0.000754954
0.000675863
0.000596507
0.00051691
0.000436886
0.000356348
0.000274611
0.000193119
0.000103244
4.64578e-05
0.00148402
0.00146486
0.0014058
0.00132908
0.00125271
0.00117687
0.00109829
0.00101761
0.000936565
0.000855563
0.000774381
0.000693105
0.000611871
0.000530519
0.000448767
0.000366705
0.000283931
0.000202107
0.000116158
4.96359e-05
0.00146031
0.00144129
0.00138349
0.00130495
0.0012264
0.00115066
0.00107369
0.000994718
0.00091517
0.000835703
0.000756199
0.000676621
0.000596926
0.000516884
0.000436302
0.000355452
0.000273938
0.000193399
0.000108626
4.24453e-05
0.00144785
0.00142854
0.00137634
0.00130483
0.00123099
0.00115808
0.00108294
0.0010049
0.000925519
0.000845856
0.000766018
0.000685931
0.000605493
0.000524566
0.000443138
0.000361617
0.000279574
0.000198493
0.000112811
4.50517e-05
0.00144785
0.00142854
0.00137634
0.00130483
0.00123099
0.00115808
0.00108294
0.00100489
0.000925521
0.000845867
0.000766018
0.000685914
0.000605484
0.000524586
0.000443171
0.000361625
0.000279541
0.000198441
0.000112774
4.50438e-05
0.00146031
0.00144129
0.00138349
0.00130495
0.0012264
0.00115066
0.00107369
0.000994705
0.000915172
0.000835723
0.000756201
0.000676589
0.000596907
0.000516925
0.000436372
0.000355472
0.00027387
0.000193285
0.000108542
4.24253e-05
0.00148401
0.00146486
0.0014058
0.00132908
0.00125271
0.00117687
0.00109829
0.0010176
0.00093656
0.000855576
0.000774392
0.000693094
0.000611857
0.00053054
0.000448815
0.000366724
0.000283881
0.00020201
0.000116077
4.96094e-05
0.00153652
0.0014623
0.00136991
0.0012904
0.0012192
0.00114581
0.00106842
0.000989846
0.000911665
0.000833562
0.000754978
0.000675887
0.000596506
0.000516896
0.000436889
0.000356366
0.000274612
0.000193081
0.000103188
4.64254e-05
0.00176229
0.0016059
0.00145431
0.00135248
0.00127121
0.00118762
0.00110071
0.00101522
0.000932377
0.000850897
0.000769704
0.000688502
0.000607408
0.000526594
0.000446153
0.000365937
0.000286799
0.000206699
0.000136908
2.47414e-05
0.001786
0.00162948
0.00147662
0.0013766
0.0012975
0.0012138
0.00112527
0.00103812
0.000953809
0.000870755
0.000787814
0.000704915
0.000622368
0.000540325
0.000458725
0.000377263
0.000296835
0.000215423
0.000144418
3.18729e-05
0.00156023
0.00148587
0.00139224
0.00131454
0.00124553
0.00117204
0.00109305
0.00101278
0.000933108
0.000853433
0.000773123
0.000692336
0.000611475
0.000530616
0.000449464
0.000367716
0.000284649
0.000201745
0.00011061
5.35308e-05
0.00150772
0.00148844
0.00142812
0.00135321
0.00127903
0.00120309
0.00112289
0.00104049
0.000957952
0.000875409
0.000792533
0.000709549
0.0006268
0.000544208
0.000461354
0.000378066
0.000293903
0.000210627
0.000123445
5.6692e-05
0.00148401
0.00146486
0.0014058
0.00132908
0.00125272
0.00117687
0.00109829
0.00101762
0.00093658
0.000855565
0.000774355
0.000693065
0.000611866
0.000530601
0.000448917
0.000366808
0.000283858
0.000201853
0.000115882
4.95164e-05
0.00147156
0.00145211
0.00139865
0.00132895
0.0012573
0.00118429
0.00110755
0.00102781
0.00094692
0.000865687
0.000784141
0.000702361
0.000620442
0.000538297
0.000455754
0.000372949
0.000289452
0.00020691
0.000120055
5.21273e-05
0.00147156
0.00145211
0.00139865
0.00132895
0.0012573
0.00118429
0.00110755
0.0010278
0.000946921
0.000865696
0.000784142
0.000702346
0.00062043
0.00053831
0.000455782
0.000372963
0.000289437
0.000206875
0.000120023
5.21139e-05
0.00148401
0.00146486
0.0014058
0.00132908
0.00125272
0.00117687
0.00109829
0.00101761
0.000936581
0.000855582
0.000774359
0.000693039
0.000611844
0.000530624
0.000448972
0.000366839
0.000283828
0.00020178
0.000115816
4.94868e-05
0.00150772
0.00148843
0.00142811
0.00135321
0.00127903
0.00120309
0.00112289
0.00104049
0.000957943
0.000875413
0.000792543
0.000709546
0.000626791
0.000544213
0.000461377
0.00037808
0.000293885
0.000210583
0.000123403
5.66674e-05
0.00156023
0.00148587
0.00139223
0.00131454
0.00124553
0.00117204
0.00109305
0.00101278
0.000933085
0.000853417
0.000773143
0.00069238
0.000611496
0.000530593
0.00044942
0.000367688
0.000284655
0.000201774
0.000110639
5.35382e-05
0.001786
0.00162948
0.00147662
0.0013766
0.0012975
0.0012138
0.00112528
0.00103812
0.000953775
0.000870725
0.00078784
0.000704991
0.000622417
0.000540287
0.000458627
0.000377187
0.000296836
0.000215494
0.000144502
3.19164e-05
0.00183852
0.00162694
0.00144077
0.00133797
0.00126404
0.00118275
0.00109539
0.00101039
0.000928986
0.000848773
0.000768342
0.000687651
0.000607035
0.0005267
0.000446715
0.000366739
0.000287439
0.000206465
0.000131613
2.86213e-05
0.00161274
0.0014833
0.00135634
0.00127585
0.00121199
0.00114093
0.00106313
0.000985016
0.000908223
0.000831401
0.000753657
0.000675102
0.000596144
0.00051698
0.000437482
0.000357273
0.000275342
0.000192839
9.77058e-05
5.0367e-05
0.00156023
0.00148587
0.00139224
0.00131454
0.00124553
0.00117204
0.00109305
0.00101277
0.000933076
0.000853424
0.00077318
0.000692424
0.000611509
0.00053057
0.000449391
0.000367666
0.000284611
0.000201681
0.000110524
5.34836e-05
0.00153652
0.0014623
0.00136991
0.0012904
0.0012192
0.0011458
0.00106841
0.00098985
0.00091167
0.000833566
0.000754987
0.000675896
0.000596517
0.000516938
0.000436976
0.000356427
0.000274525
0.000192808
0.00010287
4.62757e-05
0.00152407
0.00144955
0.00136277
0.00129028
0.00122379
0.00115321
0.00107767
0.00100007
0.000922075
0.000843731
0.000764755
0.000685143
0.000605077
0.000524689
0.000443915
0.000362657
0.000280141
0.000197824
0.000106989
4.88559e-05
0.00152407
0.00144955
0.00136277
0.00129028
0.0012238
0.00115322
0.00107767
0.00100007
0.000922073
0.000843731
0.000764754
0.000685141
0.000605076
0.000524693
0.00044392
0.000362655
0.000280133
0.000197818
0.00010699
4.88596e-05
0.00153652
0.0014623
0.00136991
0.0012904
0.0012192
0.0011458
0.00106841
0.000989847
0.000911669
0.000833568
0.000754986
0.000675889
0.000596514
0.000516946
0.000436985
0.000356423
0.000274507
0.000192795
0.000102875
4.62843e-05
0.00156023
0.00148587
0.00139224
0.00131454
0.00124553
0.00117204
0.00109305
0.00101277
0.000933075
0.00085342
0.000773174
0.000692419
0.00061151
0.000530575
0.000449392
0.000367659
0.000284604
0.000201687
0.000110544
5.34932e-05
0.00161274
0.0014833
0.00135633
0.00127584
0.00121199
0.00114093
0.00106313
0.000985019
0.000908214
0.000831385
0.000753653
0.000675115
0.000596156
0.000516971
0.000437453
0.000357252
0.000275359
0.000192899
9.7779e-05
5.03995e-05
0.00183852
0.00162694
0.00144077
0.00133797
0.00126404
0.00118276
0.00109539
0.00101039
0.000928966
0.000848751
0.000768349
0.000687687
0.000607058
0.00052667
0.000446638
0.000366677
0.000287452
0.000206561
0.000131734
2.86882e-05
0.00206429
0.00177057
0.00152525
0.00140015
0.00131616
0.00122473
0.00112783
0.00103592
0.000949893
0.00086634
0.000783331
0.000700589
0.000618299
0.000536688
0.00045612
0.000376386
0.000299792
0.000220419
0.00016546
7.53163e-06
0.00183852
0.00162694
0.00144077
0.00133797
0.00126404
0.00118276
0.0010954
0.00101037
0.000928936
0.000848757
0.000768421
0.000687776
0.000607081
0.00052661
0.000446564
0.000366659
0.000287489
0.000206597
0.000131745
2.86648e-05
0.001786
0.00162948
0.00147662
0.00137661
0.0012975
0.0012138
0.00112529
0.00103809
0.000953733
0.00087074
0.000787949
0.00070511
0.000622433
0.000540193
0.000458526
0.00037716
0.000296855
0.000215475
0.000144437
3.18516e-05
0.00176229
0.00160591
0.00145431
0.00135249
0.00127121
0.00118763
0.00110071
0.00101521
0.000932349
0.000850917
0.000769791
0.000688589
0.000607423
0.000526562
0.000446152
0.000365961
0.000286744
0.000206495
0.000136657
2.46065e-05
0.00174983
0.00159316
0.00144716
0.00135236
0.00127579
0.00119501
0.0011099
0.00102537
0.000942745
0.000861092
0.000779532
0.000697758
0.000615896
0.000534264
0.000453089
0.000372199
0.000292342
0.000211462
0.000140722
2.7179e-05
0.00174983
0.00159316
0.00144716
0.00135236
0.00127579
0.00119501
0.0011099
0.00102537
0.000942744
0.000861086
0.00077953
0.000697766
0.000615907
0.000534264
0.00045307
0.00037217
0.000292323
0.000211469
0.000140747
2.72012e-05
0.00176229
0.0016059
0.00145431
0.00135249
0.00127121
0.00118762
0.00110071
0.00101521
0.00093235
0.000850909
0.000769786
0.000688599
0.000607442
0.000526561
0.000446112
0.000365898
0.000286702
0.00020651
0.000136714
2.46569e-05
0.001786
0.00162948
0.00147662
0.0013766
0.0012975
0.0012138
0.00112528
0.0010381
0.000953744
0.000870742
0.000787938
0.0007051
0.000622432
0.000540188
0.000458497
0.000377111
0.000296823
0.000215495
0.000144493
3.18979e-05
0.00183852
0.00162694
0.00144077
0.00133797
0.00126404
0.00118276
0.0010954
0.00101038
0.000928953
0.000848768
0.000768408
0.000687745
0.000607056
0.000526598
0.000446556
0.000366648
0.000287493
0.000206633
0.000131797
2.86995e-05
0.00206428
0.00177057
0.00152524
0.00140015
0.00131616
0.00122472
0.00112783
0.00103593
0.000949907
0.000866353
0.00078332
0.000700551
0.000618257
0.000536662
0.000456111
0.00037639
0.000299815
0.000220468
0.000165515
7.56465e-06
)
;

boundaryField
{
    inlet
    {
        type            zeroGradient;
    }
    outlet
    {
        type            fixedValue;
        value           uniform 0;
    }
    walls
    {
        type            zeroGradient;
    }
}


// ************************************************************************* //
