/*--------------------------------*- C++ -*----------------------------------*\
| =========                 |                                                 |
| \\      /  F ield         | OpenFOAM: The Open Source CFD Toolbox           |
|  \\    /   O peration     | Version:  v1806                                 |
|   \\  /    A nd           | Web:      www.OpenFOAM.com                      |
|    \\/     M anipulation  |                                                 |
\*---------------------------------------------------------------------------*/
FoamFile
{
    version     2.0;
    format      ascii;
    class       volVectorField;
    location    "145";
    object      U;
}
// * * * * * * * * * * * * * * * * * * * * * * * * * * * * * * * * * * * * * //

dimensions      [0 1 -1 0 0 0 0];


internalField   nonuniform List<vector> 
2000
(
(0.999785 6.05154e-05 6.05153e-05)
(0.999428 0.000148783 0.000148783)
(0.999 0.000203621 0.000203621)
(0.998469 0.000240918 0.000240917)
(0.997883 0.000270227 0.000270227)
(0.997282 0.000293742 0.000293742)
(0.996673 0.000312035 0.000312035)
(0.996055 0.000326267 0.000326269)
(0.99543 0.00033768 0.000337685)
(0.994801 0.00034708 0.000347085)
(0.994169 0.000354929 0.000354933)
(0.993536 0.000361557 0.000361564)
(0.992902 0.00036726 0.000367275)
(0.992266 0.000372253 0.000372277)
(0.99163 0.00037693 0.000376961)
(0.990989 0.000381137 0.000381174)
(0.990352 0.000387207 0.000387254)
(0.989674 0.000390443 0.0003905)
(0.989114 0.000409922 0.000409983)
(0.988091 0.000401671 0.000401767)
(0.999941 7.64456e-05 6.05253e-05)
(0.999919 0.00017421 0.000148842)
(0.999881 0.000218002 0.000203745)
(0.999789 0.0002376 0.000241111)
(0.999672 0.000249856 0.000270499)
(0.999554 0.000257547 0.000294096)
(0.999439 0.000260691 0.000312461)
(0.999322 0.000260711 0.000326765)
(0.999201 0.000259277 0.000338252)
(0.99908 0.000257274 0.000347724)
(0.998958 0.000255019 0.000355641)
(0.998836 0.000252701 0.000362337)
(0.998713 0.000250516 0.000368106)
(0.99859 0.000248581 0.000373155)
(0.998467 0.000247197 0.000377881)
(0.998342 0.00024616 0.000382138)
(0.99822 0.000247506 0.000388286)
(0.998087 0.000246959 0.000391572)
(0.997988 0.000260285 0.000411259)
(0.997788 0.000248489 0.000403186)
(0.999894 2.18425e-05 6.05212e-05)
(0.999728 4.32547e-05 0.000148812)
(0.999543 4.33777e-05 0.000203668)
(0.999312 3.7267e-05 0.000240976)
(0.999056 3.28893e-05 0.000270303)
(0.998794 3.0069e-05 0.000293829)
(0.99853 2.73809e-05 0.000312121)
(0.998263 2.48217e-05 0.000326359)
(0.997992 2.28537e-05 0.000337784)
(0.997718 2.15485e-05 0.00034719)
(0.997445 2.0712e-05 0.000355043)
(0.99717 2.01901e-05 0.000361686)
(0.996895 1.9926e-05 0.000367409)
(0.996619 1.98882e-05 0.000372411)
(0.996343 2.0054e-05 0.000377094)
(0.996065 2.04329e-05 0.000381321)
(0.995788 2.07451e-05 0.000387445)
(0.995495 2.15763e-05 0.000390723)
(0.995248 1.88785e-05 0.000410353)
(0.994808 2.07291e-05 0.000402211)
(0.999894 8.95366e-06 6.05213e-05)
(0.999728 2.75696e-05 0.000148818)
(0.999542 4.36331e-05 0.000203686)
(0.999313 5.68533e-05 0.000241013)
(0.999058 6.84475e-05 0.000270361)
(0.998796 7.85979e-05 0.000293912)
(0.99853 8.70529e-05 0.000312238)
(0.99826 9.40083e-05 0.000326509)
(0.997987 9.99026e-05 0.00033796)
(0.997712 0.000105024 0.000347384)
(0.997436 0.000109489 0.000355255)
(0.997159 0.000113378 0.000361915)
(0.996882 0.000116794 0.000367648)
(0.996604 0.00011984 0.000372655)
(0.996326 0.000122605 0.000377341)
(0.996046 0.000125132 0.000381569)
(0.995768 0.000127422 0.000387689)
(0.995472 0.000129573 0.00039095)
(0.995225 0.000131021 0.000410547)
(0.994774 0.000134486 0.00040238)
(0.999894 3.03876e-06 6.05215e-05)
(0.999727 9.71808e-06 0.000148818)
(0.999536 1.4568e-05 0.000203685)
(0.999301 1.61305e-05 0.000241006)
(0.999042 1.49628e-05 0.000270344)
(0.998776 1.20103e-05 0.000293883)
(0.998509 7.8893e-06 0.000312189)
(0.998238 3.06066e-06 0.000326431)
(0.997965 -2.06701e-06 0.000337853)
(0.99769 -7.19621e-06 0.000347259)
(0.997414 -1.21573e-05 0.000355116)
(0.997138 -1.68592e-05 0.000361758)
(0.996862 -2.12419e-05 0.000367466)
(0.996585 -2.52647e-05 0.000372444)
(0.996308 -2.89076e-05 0.000377107)
(0.996029 -3.2185e-05 0.00038132)
(0.995751 -3.51024e-05 0.000387429)
(0.995456 -3.77553e-05 0.000390681)
(0.99521 -3.98207e-05 0.00041026)
(0.994764 -4.2177e-05 0.000402078)
(0.999894 -3.03854e-06 6.05215e-05)
(0.999727 -9.71787e-06 0.000148818)
(0.999536 -1.45674e-05 0.000203685)
(0.999301 -1.61295e-05 0.000241006)
(0.999042 -1.49617e-05 0.000270344)
(0.998776 -1.20088e-05 0.000293883)
(0.998509 -7.88674e-06 0.000312188)
(0.998238 -3.05748e-06 0.00032643)
(0.997965 2.07013e-06 0.000337853)
(0.99769 7.20017e-06 0.00034726)
(0.997414 1.21633e-05 0.000355116)
(0.997138 1.68664e-05 0.000361757)
(0.996862 2.12488e-05 0.000367465)
(0.996585 2.52712e-05 0.000372446)
(0.996308 2.89161e-05 0.000377108)
(0.996029 3.21987e-05 0.00038132)
(0.995751 3.51236e-05 0.000387426)
(0.995456 3.77839e-05 0.000390677)
(0.99521 3.98518e-05 0.000410258)
(0.994764 4.22156e-05 0.000402075)
(0.999894 -8.95349e-06 6.05213e-05)
(0.999728 -2.75695e-05 0.000148818)
(0.999542 -4.36329e-05 0.000203686)
(0.999313 -5.68523e-05 0.000241013)
(0.999058 -6.84456e-05 0.000270361)
(0.998796 -7.85964e-05 0.000293913)
(0.99853 -8.70516e-05 0.000312237)
(0.99826 -9.40053e-05 0.000326508)
(0.997987 -9.98979e-05 0.000337961)
(0.997712 -0.00010502 0.000347385)
(0.997436 -0.000109486 0.000355253)
(0.997159 -0.000113373 0.000361911)
(0.996882 -0.000116785 0.000367646)
(0.996604 -0.000119827 0.000372655)
(0.996326 -0.000122589 0.000377341)
(0.996046 -0.000125115 0.000381566)
(0.995768 -0.000127403 0.000387683)
(0.995472 -0.000129553 0.000390943)
(0.995225 -0.000131001 0.00041054)
(0.994774 -0.000134464 0.000402372)
(0.999894 -2.18422e-05 6.05213e-05)
(0.999728 -4.32545e-05 0.000148812)
(0.999543 -4.33773e-05 0.000203669)
(0.999312 -3.72669e-05 0.000240976)
(0.999056 -3.28886e-05 0.000270302)
(0.998794 -3.00673e-05 0.000293829)
(0.99853 -2.7379e-05 0.000312121)
(0.998263 -2.48195e-05 0.000326358)
(0.997992 -2.2851e-05 0.000337783)
(0.997718 -2.15471e-05 0.00034719)
(0.997445 -2.07128e-05 0.000355044)
(0.99717 -2.01904e-05 0.000361686)
(0.996895 -1.99223e-05 0.000367406)
(0.996619 -1.98797e-05 0.000372407)
(0.996343 -2.00426e-05 0.00037709)
(0.996065 -2.04212e-05 0.000381316)
(0.995788 -2.07359e-05 0.000387438)
(0.995495 -2.15722e-05 0.000390714)
(0.995248 -1.88801e-05 0.000410342)
(0.994809 -2.07439e-05 0.000402194)
(0.999941 -7.64453e-05 6.05253e-05)
(0.999919 -0.000174209 0.000148842)
(0.999881 -0.000218001 0.000203745)
(0.999789 -0.000237599 0.000241111)
(0.999672 -0.000249854 0.000270499)
(0.999554 -0.000257544 0.000294096)
(0.999439 -0.000260688 0.000312461)
(0.999322 -0.000260707 0.000326763)
(0.999201 -0.000259272 0.000338249)
(0.99908 -0.000257267 0.000347723)
(0.998958 -0.000255012 0.000355643)
(0.998836 -0.000252694 0.00036234)
(0.998713 -0.000250507 0.000368105)
(0.99859 -0.00024857 0.000373148)
(0.998467 -0.000247181 0.000377874)
(0.998342 -0.000246139 0.000382132)
(0.99822 -0.00024748 0.000388279)
(0.998087 -0.000246933 0.000391561)
(0.997988 -0.000260261 0.000411241)
(0.997788 -0.000248474 0.000403152)
(0.999785 -6.05152e-05 6.05154e-05)
(0.999428 -0.000148783 0.000148783)
(0.999 -0.000203621 0.000203621)
(0.998469 -0.000240916 0.000240917)
(0.997883 -0.000270226 0.000270227)
(0.997282 -0.00029374 0.000293742)
(0.996673 -0.000312032 0.000312035)
(0.996055 -0.000326264 0.000326268)
(0.99543 -0.000337676 0.000337682)
(0.994801 -0.000347074 0.000347083)
(0.994169 -0.00035492 0.000354934)
(0.993536 -0.000361548 0.000361565)
(0.992902 -0.000367251 0.000367271)
(0.992266 -0.000372243 0.000372268)
(0.99163 -0.000376917 0.000376951)
(0.990989 -0.000381119 0.000381167)
(0.990352 -0.000387182 0.000387243)
(0.989674 -0.000390414 0.00039048)
(0.989115 -0.000409889 0.000409948)
(0.988091 -0.000401636 0.000401708)
(0.999941 6.05254e-05 7.64455e-05)
(0.999919 0.000148842 0.00017421)
(0.999881 0.000203746 0.000218002)
(0.999789 0.000241111 0.000237599)
(0.999672 0.000270499 0.000249856)
(0.999554 0.000294096 0.000257547)
(0.999439 0.000312462 0.000260692)
(0.999322 0.000326762 0.000260715)
(0.999201 0.000338247 0.000259283)
(0.99908 0.000347719 0.000257278)
(0.998958 0.000355637 0.000255022)
(0.998836 0.00036233 0.00025271)
(0.998713 0.000368091 0.000250535)
(0.99859 0.000373131 0.000248611)
(0.998467 0.000377851 0.000247239)
(0.998343 0.000382102 0.000246215)
(0.99822 0.00038824 0.000247566)
(0.998088 0.000391516 0.000246996)
(0.997988 0.000411198 0.000260279)
(0.997789 0.000403091 0.000248402)
(1.0001 7.64487e-05 7.64486e-05)
(1.00041 0.000174232 0.000174232)
(1.00076 0.000218054 0.000218054)
(1.00111 0.000237681 0.00023768)
(1.00146 0.000249971 0.000249971)
(1.00183 0.000257692 0.000257692)
(1.00221 0.000260854 0.000260856)
(1.00259 0.000260896 0.0002609)
(1.00297 0.000259488 0.000259494)
(1.00336 0.000257503 0.000257507)
(1.00375 0.000255262 0.000255264)
(1.00414 0.00025296 0.000252967)
(1.00453 0.000250784 0.000250801)
(1.00492 0.000248843 0.000248873)
(1.00531 0.000247448 0.000247491)
(1.0057 0.000246407 0.000246465)
(1.0061 0.000247771 0.000247832)
(1.00651 0.000247231 0.000247267)
(1.00687 0.000260656 0.000260645)
(1.0075 0.000248912 0.000248813)
(1.00005 2.184e-05 7.64481e-05)
(1.00022 4.32498e-05 0.000174222)
(1.00042 4.33754e-05 0.000218013)
(1.00063 3.7273e-05 0.000237601)
(1.00085 3.29032e-05 0.000249852)
(1.00107 3.00879e-05 0.000257528)
(1.0013 2.74132e-05 0.000260648)
(1.00153 2.48799e-05 0.000260662)
(1.00176 2.29345e-05 0.000259225)
(1.002 2.16406e-05 0.000257196)
(1.00223 2.08164e-05 0.000254921)
(1.00247 2.03166e-05 0.000252613)
(1.00271 2.00765e-05 0.000250445)
(1.00294 2.00566e-05 0.000248506)
(1.00318 2.02405e-05 0.00024711)
(1.00342 2.06481e-05 0.000246077)
(1.00366 2.09884e-05 0.000247446)
(1.00391 2.18538e-05 0.000246879)
(1.00412 1.91114e-05 0.000260227)
(1.00451 2.09927e-05 0.0002483)
(1.00005 8.95294e-06 7.64472e-05)
(1.00022 2.75721e-05 0.000174221)
(1.00042 4.3646e-05 0.000218017)
(1.00063 5.68826e-05 0.000237612)
(1.00085 6.84951e-05 0.00024987)
(1.00107 7.86703e-05 0.000257557)
(1.0013 8.71554e-05 0.000260695)
(1.00153 9.41368e-05 0.000260722)
(1.00176 0.000100054 0.000259285)
(1.00199 0.000105205 0.000257251)
(1.00223 0.000109706 0.000254973)
(1.00246 0.000113629 0.000252664)
(1.0027 0.000117069 0.000250488)
(1.00293 0.000120132 0.000248535)
(1.00317 0.000122919 0.000247127)
(1.0034 0.000125478 0.000246085)
(1.00364 0.000127799 0.000247437)
(1.00389 0.000129975 0.000246833)
(1.0041 0.00013142 0.000260129)
(1.00448 0.000134923 0.00024812)
(1.00005 3.03877e-06 7.6447e-05)
(1.00022 9.71916e-06 0.000174222)
(1.00042 1.4571e-05 0.000218018)
(1.00062 1.61356e-05 0.00023761)
(1.00083 1.49703e-05 0.000249863)
(1.00105 1.20216e-05 0.000257544)
(1.00127 7.89946e-06 0.000260667)
(1.0015 3.06231e-06 0.000260671)
(1.00174 -2.07136e-06 0.00025922)
(1.00197 -7.19722e-06 0.000257189)
(1.0022 -1.21519e-05 0.000254915)
(1.00244 -1.68535e-05 0.000252594)
(1.00267 -2.12444e-05 0.000250393)
(1.00291 -2.52791e-05 0.00024842)
(1.00315 -2.89329e-05 0.000247008)
(1.00338 -3.22176e-05 0.000245977)
(1.00362 -3.51418e-05 0.00024734)
(1.00387 -3.78019e-05 0.000246738)
(1.00408 -3.98831e-05 0.000260022)
(1.00446 -4.22665e-05 0.000247977)
(1.00005 -3.03852e-06 7.6447e-05)
(1.00022 -9.71892e-06 0.000174222)
(1.00042 -1.45705e-05 0.000218018)
(1.00062 -1.61346e-05 0.00023761)
(1.00083 -1.4969e-05 0.000249863)
(1.00105 -1.20199e-05 0.000257544)
(1.00127 -7.89794e-06 0.000260666)
(1.0015 -3.06048e-06 0.00026067)
(1.00174 2.07523e-06 0.000259221)
(1.00197 7.20261e-06 0.000257191)
(1.0022 1.2156e-05 0.000254914)
(1.00244 1.6856e-05 0.000252592)
(1.00267 2.12484e-05 0.000250394)
(1.00291 2.52869e-05 0.000248423)
(1.00315 2.89431e-05 0.000247008)
(1.00338 3.22286e-05 0.000245972)
(1.00362 3.5155e-05 0.000247333)
(1.00387 3.78199e-05 0.000246734)
(1.00408 3.99049e-05 0.000260023)
(1.00446 4.22947e-05 0.00024799)
(1.00005 -8.95271e-06 7.64472e-05)
(1.00022 -2.75718e-05 0.000174221)
(1.00042 -4.36454e-05 0.000218017)
(1.00063 -5.68817e-05 0.000237612)
(1.00085 -6.84941e-05 0.00024987)
(1.00107 -7.86692e-05 0.000257557)
(1.0013 -8.71533e-05 0.000260694)
(1.00153 -9.41339e-05 0.000260721)
(1.00176 -0.000100051 0.000259286)
(1.00199 -0.0001052 0.000257252)
(1.00223 -0.000109701 0.00025497)
(1.00246 -0.000113623 0.000252659)
(1.0027 -0.000117062 0.000250488)
(1.00293 -0.000120125 0.000248538)
(1.00317 -0.000122909 0.000247126)
(1.0034 -0.000125466 0.000246075)
(1.00364 -0.000127785 0.000247423)
(1.00389 -0.000129961 0.000246825)
(1.0041 -0.000131407 0.000260133)
(1.00448 -0.000134916 0.000248148)
(1.00005 -2.18398e-05 7.64482e-05)
(1.00022 -4.32497e-05 0.000174222)
(1.00042 -4.33751e-05 0.000218014)
(1.00063 -3.72724e-05 0.000237601)
(1.00085 -3.2902e-05 0.000249851)
(1.00107 -3.00864e-05 0.000257527)
(1.0013 -2.74116e-05 0.000260648)
(1.00153 -2.48793e-05 0.000260661)
(1.00176 -2.29357e-05 0.000259224)
(1.002 -2.16411e-05 0.000257198)
(1.00223 -2.08131e-05 0.000254923)
(1.00247 -2.0311e-05 0.000252612)
(1.00271 -2.00723e-05 0.000250441)
(1.00294 -2.00544e-05 0.0002485)
(1.00318 -2.02366e-05 0.000247101)
(1.00342 -2.06404e-05 0.000246065)
(1.00366 -2.09807e-05 0.000247433)
(1.00391 -2.1854e-05 0.000246872)
(1.00412 -1.9124e-05 0.000260229)
(1.00451 -2.10332e-05 0.000248317)
(1.0001 -7.64484e-05 7.64486e-05)
(1.00041 -0.000174232 0.000174232)
(1.00076 -0.000218053 0.000218053)
(1.00111 -0.00023768 0.000237681)
(1.00146 -0.000249969 0.000249971)
(1.00183 -0.000257689 0.000257692)
(1.00221 -0.000260851 0.000260855)
(1.00259 -0.000260893 0.000260898)
(1.00297 -0.000259485 0.000259491)
(1.00336 -0.000257499 0.000257508)
(1.00375 -0.000255255 0.00025527)
(1.00414 -0.000252951 0.000252969)
(1.00453 -0.000250777 0.000250795)
(1.00492 -0.000248837 0.00024886)
(1.00531 -0.000247437 0.000247478)
(1.0057 -0.000246389 0.000246452)
(1.0061 -0.000247749 0.000247822)
(1.00651 -0.000247216 0.000247258)
(1.00687 -0.000260656 0.00026064)
(1.0075 -0.000248938 0.00024881)
(0.999941 -6.05252e-05 7.64456e-05)
(0.999919 -0.000148842 0.00017421)
(0.999881 -0.000203745 0.000218002)
(0.999789 -0.00024111 0.0002376)
(0.999672 -0.000270498 0.000249856)
(0.999554 -0.000294094 0.000257547)
(0.999439 -0.000312459 0.000260692)
(0.999322 -0.000326759 0.000260714)
(0.999201 -0.000338242 0.00025928)
(0.99908 -0.000347713 0.000257277)
(0.998958 -0.00035563 0.000255025)
(0.998836 -0.000362323 0.000252711)
(0.998713 -0.000368084 0.000250527)
(0.99859 -0.000373123 0.000248595)
(0.998467 -0.00037784 0.000247222)
(0.998343 -0.000382085 0.000246197)
(0.99822 -0.000388218 0.000247543)
(0.998088 -0.000391495 0.000246967)
(0.997988 -0.000411183 0.000260242)
(0.997789 -0.00040308 0.000248351)
(0.999894 6.05213e-05 2.18425e-05)
(0.999728 0.000148812 4.32548e-05)
(0.999543 0.000203669 4.33778e-05)
(0.999312 0.000240977 3.72673e-05)
(0.999056 0.000270303 3.28893e-05)
(0.998794 0.00029383 3.00692e-05)
(0.99853 0.000312122 2.73821e-05)
(0.998263 0.000326356 2.48219e-05)
(0.997992 0.000337778 2.28516e-05)
(0.997718 0.000347185 2.15478e-05)
(0.997445 0.000355039 2.07171e-05)
(0.99717 0.000361678 2.01981e-05)
(0.996895 0.000367392 1.99316e-05)
(0.996619 0.000372387 1.98964e-05)
(0.996343 0.000377066 2.00813e-05)
(0.996065 0.000381287 2.04856e-05)
(0.995789 0.000387401 2.07978e-05)
(0.995495 0.000390665 2.15682e-05)
(0.995248 0.000410286 1.87753e-05)
(0.994809 0.000402102 2.03885e-05)
(1.00005 7.64482e-05 2.184e-05)
(1.00022 0.000174222 4.32499e-05)
(1.00042 0.000218014 4.33755e-05)
(1.00063 0.000237601 3.7273e-05)
(1.00085 0.000249852 3.29032e-05)
(1.00107 0.000257527 3.00891e-05)
(1.0013 0.000260647 2.74151e-05)
(1.00153 0.000260658 2.48796e-05)
(1.00176 0.000259219 2.29316e-05)
(1.002 0.000257192 2.16396e-05)
(1.00223 0.000254918 2.08206e-05)
(1.00247 0.000252605 2.03228e-05)
(1.00271 0.000250426 2.00808e-05)
(1.00294 0.000248476 2.00666e-05)
(1.00318 0.000247068 2.02731e-05)
(1.00342 0.000246022 2.07068e-05)
(1.00366 0.000247386 2.10431e-05)
(1.00391 0.000246842 2.18408e-05)
(1.00412 0.000260233 1.89954e-05)
(1.00451 0.000248386 2.06256e-05)
(1 2.18403e-05 2.18403e-05)
(1.00003 4.32515e-05 4.32515e-05)
(1.00009 4.33777e-05 4.33779e-05)
(1.00016 3.72764e-05 3.72764e-05)
(1.00023 3.29107e-05 3.29109e-05)
(1.00031 3.01033e-05 3.01047e-05)
(1.00039 2.74408e-05 2.74423e-05)
(1.00047 2.49191e-05 2.49182e-05)
(1.00055 2.29763e-05 2.29732e-05)
(1.00064 2.16792e-05 2.16786e-05)
(1.00072 2.08607e-05 2.08655e-05)
(1.0008 2.03794e-05 2.03859e-05)
(1.00089 2.01572e-05 2.01619e-05)
(1.00097 2.01457e-05 2.01566e-05)
(1.00106 2.03337e-05 2.03672e-05)
(1.00114 2.07446e-05 2.08035e-05)
(1.00122 2.1083e-05 2.11364e-05)
(1.00131 2.19211e-05 2.1905e-05)
(1.00138 1.91671e-05 1.90475e-05)
(1.00152 2.09402e-05 2.05668e-05)
(1 8.95291e-06 2.18398e-05)
(1.00003 2.75724e-05 4.32497e-05)
(1.00008 4.36451e-05 4.33732e-05)
(1.00016 5.68771e-05 3.72663e-05)
(1.00023 6.84829e-05 3.28944e-05)
(1.00031 7.86509e-05 3.00815e-05)
(1.00039 8.71231e-05 2.7409e-05)
(1.00047 9.40858e-05 2.48712e-05)
(1.00055 9.99876e-05 2.29139e-05)
(1.00063 0.00010513 2.1611e-05)
(1.00071 0.000109621 2.07919e-05)
(1.00079 0.000113523 2.03046e-05)
(1.00087 0.000116935 2.00705e-05)
(1.00096 0.000119976 2.00563e-05)
(1.00104 0.000122756 2.02628e-05)
(1.00112 0.000125317 2.06952e-05)
(1.0012 0.000127635 2.1015e-05)
(1.00129 0.000129787 2.17546e-05)
(1.00136 0.000131203 1.88706e-05)
(1.00149 0.000134607 2.03021e-05)
(1 3.03877e-06 2.18396e-05)
(1.00003 9.71947e-06 4.32492e-05)
(1.00008 1.45715e-05 4.33728e-05)
(1.00014 1.61354e-05 3.72665e-05)
(1.00022 1.49692e-05 3.28959e-05)
(1.00029 1.20189e-05 3.00844e-05)
(1.00037 7.89283e-06 2.74128e-05)
(1.00045 3.05335e-06 2.48796e-05)
(1.00053 -2.07399e-06 2.29344e-05)
(1.00061 -7.18784e-06 2.16446e-05)
(1.00069 -1.21355e-05 2.08286e-05)
(1.00077 -1.6839e-05 2.03344e-05)
(1.00085 -2.12339e-05 2.00939e-05)
(1.00094 -2.52665e-05 2.00839e-05)
(1.00102 -2.8909e-05 2.03051e-05)
(1.0011 -3.21756e-05 2.07549e-05)
(1.00119 -3.50807e-05 2.10862e-05)
(1.00128 -3.77273e-05 2.18252e-05)
(1.00134 -3.97995e-05 1.89375e-05)
(1.00148 -4.21883e-05 2.0332e-05)
(1 -3.03852e-06 2.18396e-05)
(1.00003 -9.71924e-06 4.32492e-05)
(1.00008 -1.4571e-05 4.33728e-05)
(1.00014 -1.61344e-05 3.72664e-05)
(1.00022 -1.4968e-05 3.28958e-05)
(1.00029 -1.20176e-05 3.00842e-05)
(1.00037 -7.892e-06 2.74128e-05)
(1.00045 -3.05133e-06 2.488e-05)
(1.00053 2.07944e-06 2.29348e-05)
(1.00061 7.19374e-06 2.16443e-05)
(1.00069 1.21373e-05 2.08278e-05)
(1.00077 1.68398e-05 2.03348e-05)
(1.00085 2.1241e-05 2.00962e-05)
(1.00094 2.52787e-05 2.00849e-05)
(1.00102 2.89168e-05 2.03009e-05)
(1.0011 3.21749e-05 2.0746e-05)
(1.00119 3.50805e-05 2.10786e-05)
(1.00128 3.77432e-05 2.18262e-05)
(1.00134 3.98353e-05 1.89485e-05)
(1.00148 4.22683e-05 2.03646e-05)
(1 -8.95267e-06 2.18398e-05)
(1.00003 -2.75722e-05 4.32497e-05)
(1.00008 -4.36447e-05 4.33732e-05)
(1.00016 -5.68764e-05 3.72663e-05)
(1.00023 -6.8482e-05 3.28944e-05)
(1.00031 -7.86491e-05 3.00814e-05)
(1.00039 -8.71207e-05 2.74087e-05)
(1.00047 -9.40837e-05 2.48711e-05)
(1.00055 -9.9985e-05 2.29142e-05)
(1.00063 -0.000105125 2.16103e-05)
(1.00071 -0.000109614 2.07901e-05)
(1.00079 -0.000113517 2.03051e-05)
(1.00087 -0.000116931 2.00746e-05)
(1.00096 -0.000119972 2.00581e-05)
(1.00104 -0.00012275 2.02539e-05)
(1.00112 -0.000125308 2.06761e-05)
(1.0012 -0.000127622 2.09981e-05)
(1.00129 -0.00012977 2.1756e-05)
(1.00136 -0.000131182 1.88941e-05)
(1.00149 -0.000134581 2.03739e-05)
(1 -2.18401e-05 2.18403e-05)
(1.00003 -4.32513e-05 4.32515e-05)
(1.00009 -4.33774e-05 4.33777e-05)
(1.00016 -3.72759e-05 3.72762e-05)
(1.00023 -3.291e-05 3.29109e-05)
(1.00031 -3.01023e-05 3.01048e-05)
(1.00039 -2.74392e-05 2.74422e-05)
(1.00047 -2.49187e-05 2.49183e-05)
(1.00055 -2.29775e-05 2.29743e-05)
(1.00064 -2.16771e-05 2.16793e-05)
(1.00072 -2.08531e-05 2.08641e-05)
(1.0008 -2.03731e-05 2.03836e-05)
(1.00089 -2.01594e-05 2.0161e-05)
(1.00097 -2.01528e-05 2.01542e-05)
(1.00106 -2.03347e-05 2.0357e-05)
(1.00114 -2.07351e-05 2.07846e-05)
(1.00122 -2.10703e-05 2.11187e-05)
(1.00131 -2.19176e-05 2.19041e-05)
(1.00138 -1.91767e-05 1.90695e-05)
(1.00152 -2.09848e-05 2.0637e-05)
(1.00005 -7.64479e-05 2.184e-05)
(1.00022 -0.000174221 4.32498e-05)
(1.00042 -0.000218013 4.33755e-05)
(1.00063 -0.0002376 3.72728e-05)
(1.00085 -0.00024985 3.29028e-05)
(1.00107 -0.000257525 3.00886e-05)
(1.0013 -0.000260644 2.74148e-05)
(1.00153 -0.000260655 2.48801e-05)
(1.00176 -0.000259216 2.29336e-05)
(1.002 -0.000257188 2.16415e-05)
(1.00223 -0.00025491 2.08197e-05)
(1.00247 -0.000252595 2.03188e-05)
(1.00271 -0.000250421 2.0076e-05)
(1.00294 -0.000248474 2.00615e-05)
(1.00318 -0.000247061 2.02632e-05)
(1.00342 -0.000246007 2.06886e-05)
(1.00366 -0.00024737 2.10221e-05)
(1.00391 -0.000246838 2.18321e-05)
(1.00412 -0.000260248 1.90114e-05)
(1.00451 -0.000248439 2.06914e-05)
(0.999894 -6.05211e-05 2.18425e-05)
(0.999728 -0.000148812 4.32547e-05)
(0.999543 -0.000203668 4.33777e-05)
(0.999312 -0.000240975 3.72672e-05)
(0.999056 -0.000270301 3.2889e-05)
(0.998794 -0.000293828 3.00689e-05)
(0.99853 -0.000312119 2.73819e-05)
(0.998263 -0.000326352 2.48225e-05)
(0.997992 -0.000337774 2.28527e-05)
(0.997718 -0.00034718 2.15485e-05)
(0.997445 -0.000355032 2.07158e-05)
(0.99717 -0.00036167 2.01946e-05)
(0.996895 -0.000367384 1.99275e-05)
(0.996619 -0.000372379 1.98911e-05)
(0.996343 -0.000377056 2.00682e-05)
(0.996065 -0.000381274 2.04568e-05)
(0.995789 -0.000387387 2.0755e-05)
(0.995495 -0.000390656 2.1528e-05)
(0.995248 -0.000410287 1.87548e-05)
(0.994809 -0.000402116 2.04042e-05)
(0.999894 6.05214e-05 8.95372e-06)
(0.999728 0.000148818 2.75697e-05)
(0.999542 0.000203687 4.36332e-05)
(0.999313 0.000241013 5.6853e-05)
(0.999058 0.000270361 6.84465e-05)
(0.998796 0.000293914 7.85978e-05)
(0.99853 0.000312238 8.70531e-05)
(0.99826 0.000326506 9.40058e-05)
(0.997987 0.000337954 9.98999e-05)
(0.997712 0.000347379 0.000105029)
(0.997436 0.00035525 0.000109503)
(0.997159 0.000361906 0.000113388)
(0.996882 0.000367631 0.000116791)
(0.996605 0.000372633 0.000119834)
(0.996326 0.000377316 0.000122617)
(0.996046 0.000381539 0.000125171)
(0.995768 0.000387645 0.000127464)
(0.995472 0.000390888 0.000129566)
(0.995225 0.000410472 0.000130938)
(0.994774 0.000402254 0.000134202)
(1.00005 7.64473e-05 8.95296e-06)
(1.00022 0.000174222 2.75721e-05)
(1.00042 0.000218018 4.3646e-05)
(1.00063 0.000237612 5.68823e-05)
(1.00085 0.00024987 6.84947e-05)
(1.00107 0.000257558 7.86711e-05)
(1.0013 0.000260693 8.71558e-05)
(1.00153 0.000260716 9.41338e-05)
(1.00176 0.000259278 0.000100051)
(1.00199 0.000257248 0.000105209)
(1.00223 0.000254971 0.000109718)
(1.00246 0.000252655 0.000113638)
(1.0027 0.000250469 0.000117068)
(1.00293 0.000248508 0.000120131)
(1.00317 0.00024709 0.000122937)
(1.0034 0.000246035 0.000125519)
(1.00364 0.000247377 0.000127838)
(1.00389 0.000246789 0.000129959)
(1.0041 0.000260123 0.000131323)
(1.00448 0.000248184 0.000134621)
(1 2.18398e-05 8.95292e-06)
(1.00003 4.32497e-05 2.75724e-05)
(1.00008 4.33731e-05 4.36451e-05)
(1.00016 3.72664e-05 5.68769e-05)
(1.00023 3.28944e-05 6.84828e-05)
(1.00031 3.00803e-05 7.86517e-05)
(1.00039 2.74071e-05 8.71229e-05)
(1.00047 2.48715e-05 9.40817e-05)
(1.00055 2.29168e-05 9.99836e-05)
(1.00063 2.1612e-05 0.000105134)
(1.00071 2.07877e-05 0.000109633)
(1.00079 2.02985e-05 0.000113533)
(1.00087 2.00662e-05 0.000116936)
(1.00096 2.00463e-05 0.000119977)
(1.00104 2.02301e-05 0.000122775)
(1.00112 2.06364e-05 0.000125357)
(1.0012 2.09603e-05 0.00012767)
(1.00129 2.17678e-05 0.000129766)
(1.00136 1.8987e-05 0.000131102)
(1.00149 2.06702e-05 0.000134301)
(1 8.95253e-06 8.95254e-06)
(1.00003 2.75706e-05 2.75707e-05)
(1.00008 4.36416e-05 4.36417e-05)
(1.00016 5.68721e-05 5.68719e-05)
(1.00023 6.84769e-05 6.84768e-05)
(1.00031 7.86429e-05 7.86436e-05)
(1.00039 8.71132e-05 8.71126e-05)
(1.00047 9.40785e-05 9.40742e-05)
(1.00054 9.9987e-05 9.99833e-05)
(1.00062 0.000105133 0.000105138)
(1.0007 0.000109622 0.000109635)
(1.00078 0.000113519 0.00011353)
(1.00086 0.00011693 0.000116931)
(1.00094 0.000119976 0.000119975)
(1.00102 0.00012276 0.000122776)
(1.0011 0.000125318 0.000125356)
(1.00118 0.000127623 0.000127657)
(1.00127 0.000129754 0.000129734)
(1.00134 0.000131153 0.000131056)
(1.00146 0.000134507 0.000134208)
(1 3.03863e-06 8.95232e-06)
(1.00003 9.71898e-06 2.757e-05)
(1.00008 1.45707e-05 4.36408e-05)
(1.00015 1.61344e-05 5.68712e-05)
(1.00022 1.49676e-05 6.8476e-05)
(1.00029 1.20161e-05 7.86431e-05)
(1.00037 7.89011e-06 8.7115e-05)
(1.00044 3.05234e-06 9.40785e-05)
(1.00052 -2.07504e-06 9.99815e-05)
(1.0006 -7.19441e-06 0.000105123)
(1.00068 -1.2152e-05 0.000109611)
(1.00076 -1.68646e-05 0.000113511)
(1.00084 -2.12645e-05 0.000116926)
(1.00092 -2.53003e-05 0.000119981)
(1.001 -2.89478e-05 0.000122776)
(1.00109 -3.22221e-05 0.000125334)
(1.00117 -3.5135e-05 0.00012761)
(1.00125 -3.77877e-05 0.000129669)
(1.00132 -3.98625e-05 0.000130988)
(1.00145 -4.22571e-05 0.000134145)
(1 -3.03838e-06 8.95231e-06)
(1.00003 -9.71877e-06 2.757e-05)
(1.00008 -1.45702e-05 4.36408e-05)
(1.00015 -1.61335e-05 5.68712e-05)
(1.00022 -1.49663e-05 6.84761e-05)
(1.00029 -1.20146e-05 7.86434e-05)
(1.00037 -7.8889e-06 8.71152e-05)
(1.00044 -3.05028e-06 9.40779e-05)
(1.00052 2.07958e-06 9.99801e-05)
(1.0006 7.19878e-06 0.000105122)
(1.00068 1.21535e-05 0.000109612)
(1.00076 1.68679e-05 0.000113512)
(1.00084 2.1275e-05 0.000116926)
(1.00092 2.53109e-05 0.000119978)
(1.001 2.89448e-05 0.00012277)
(1.00109 3.22051e-05 0.000125329)
(1.00117 3.51237e-05 0.00012761)
(1.00125 3.78082e-05 0.000129677)
(1.00132 3.99188e-05 0.000131001)
(1.00145 4.23898e-05 0.000134167)
(1 -8.95231e-06 8.95254e-06)
(1.00003 -2.75705e-05 2.75707e-05)
(1.00008 -4.36413e-05 4.36417e-05)
(1.00016 -5.68713e-05 5.68719e-05)
(1.00023 -6.84758e-05 6.84768e-05)
(1.00031 -7.86415e-05 7.86436e-05)
(1.00039 -8.71113e-05 8.7113e-05)
(1.00047 -9.40759e-05 9.40741e-05)
(1.00054 -9.99831e-05 9.9982e-05)
(1.00062 -0.000105128 0.000105137)
(1.0007 -0.000109617 0.000109636)
(1.00078 -0.000113515 0.000113533)
(1.00086 -0.000116926 0.000116932)
(1.00094 -0.000119972 0.00011997)
(1.00102 -0.000122756 0.000122763)
(1.0011 -0.000125316 0.000125341)
(1.00118 -0.000127619 0.000127652)
(1.00127 -0.000129742 0.000129747)
(1.00134 -0.000131129 0.000131082)
(1.00146 -0.000134462 0.000134262)
(1 -2.18396e-05 8.9529e-06)
(1.00003 -4.32496e-05 2.75723e-05)
(1.00008 -4.33728e-05 4.3645e-05)
(1.00016 -3.72659e-05 5.68769e-05)
(1.00023 -3.28936e-05 6.84829e-05)
(1.00031 -3.00791e-05 7.86516e-05)
(1.00039 -2.74055e-05 8.71234e-05)
(1.00047 -2.48703e-05 9.40831e-05)
(1.00055 -2.29163e-05 9.99834e-05)
(1.00063 -2.16099e-05 0.00010513)
(1.00071 -2.07835e-05 0.000109629)
(1.00079 -2.02973e-05 0.000113533)
(1.00087 -2.0071e-05 0.000116939)
(1.00096 -2.00511e-05 0.000119978)
(1.00104 -2.02272e-05 0.000122765)
(1.00112 -2.06278e-05 0.000125339)
(1.0012 -2.09567e-05 0.000127654)
(1.00129 -2.1778e-05 0.000129767)
(1.00136 -1.90071e-05 0.000131124)
(1.00149 -2.07165e-05 0.000134365)
(1.00005 -7.6447e-05 8.95294e-06)
(1.00022 -0.000174221 2.7572e-05)
(1.00042 -0.000218017 4.36459e-05)
(1.00063 -0.000237611 5.68821e-05)
(1.00085 -0.000249869 6.84948e-05)
(1.00107 -0.000257555 7.8671e-05)
(1.0013 -0.00026069 8.71563e-05)
(1.00153 -0.000260713 9.41358e-05)
(1.00176 -0.000259276 0.000100051)
(1.00199 -0.000257244 0.000105204)
(1.00223 -0.000254963 0.000109709)
(1.00246 -0.000252648 0.000113634)
(1.00269 -0.000250466 0.000117072)
(1.00293 -0.000248505 0.000120138)
(1.00317 -0.000247082 0.000122934)
(1.0034 -0.000246026 0.0001255)
(1.00364 -0.00024738 0.00012781)
(1.00389 -0.000246813 0.000129945)
(1.0041 -0.000260166 0.000131335)
(1.00448 -0.000248266 0.000134694)
(0.999894 -6.05212e-05 8.95369e-06)
(0.999728 -0.000148817 2.75696e-05)
(0.999542 -0.000203686 4.36331e-05)
(0.999313 -0.000241012 5.68529e-05)
(0.999058 -0.000270359 6.84469e-05)
(0.998796 -0.000293911 7.85982e-05)
(0.99853 -0.000312235 8.70534e-05)
(0.99826 -0.000326502 9.40073e-05)
(0.997987 -0.00033795 9.99013e-05)
(0.997712 -0.000347375 0.000105025)
(0.997436 -0.000355244 0.000109493)
(0.997159 -0.000361898 0.000113381)
(0.996882 -0.000367624 0.000116793)
(0.996605 -0.000372626 0.00011984)
(0.996326 -0.000377308 0.000122612)
(0.996046 -0.000381532 0.000125142)
(0.995768 -0.000387645 0.000127417)
(0.995472 -0.000390899 0.000129525)
(0.995225 -0.000410494 0.000130921)
(0.994774 -0.000402295 0.000134241)
(0.999894 6.05216e-05 3.03879e-06)
(0.999727 0.000148818 9.71808e-06)
(0.999536 0.000203686 1.45679e-05)
(0.999301 0.000241006 1.61301e-05)
(0.999042 0.000270344 1.49625e-05)
(0.998776 0.000293885 1.20104e-05)
(0.998509 0.00031219 7.88946e-06)
(0.998238 0.000326428 3.06096e-06)
(0.997965 0.000337847 -2.0645e-06)
(0.99769 0.000347253 -7.19045e-06)
(0.997414 0.000355111 -1.21513e-05)
(0.997138 0.000361749 -1.68579e-05)
(0.996862 0.000367451 -2.12476e-05)
(0.996585 0.000372425 -2.52761e-05)
(0.996308 0.000377085 -2.89228e-05)
(0.996029 0.000381289 -3.22041e-05)
(0.995751 0.000387381 -3.51291e-05)
(0.995456 0.000390613 -3.77956e-05)
(0.99521 0.00041018 -3.98761e-05)
(0.994764 0.000401947 -4.22846e-05)
(1.00005 7.64471e-05 3.03877e-06)
(1.00022 0.000174222 9.71911e-06)
(1.00042 0.000218018 1.45709e-05)
(1.00062 0.00023761 1.61352e-05)
(1.00083 0.000249864 1.49701e-05)
(1.00105 0.000257545 1.20219e-05)
(1.00127 0.000260666 7.89989e-06)
(1.0015 0.000260665 3.06299e-06)
(1.00174 0.000259212 -2.06904e-06)
(1.00197 0.000257184 -7.1926e-06)
(1.0022 0.000254912 -1.2147e-05)
(1.00244 0.000252585 -1.68515e-05)
(1.00267 0.000250378 -2.12473e-05)
(1.00291 0.000248397 -2.52877e-05)
(1.00315 0.000246973 -2.89478e-05)
(1.00338 0.000245923 -3.22401e-05)
(1.00362 0.000247273 -3.51733e-05)
(1.00387 0.000246686 -3.78451e-05)
(1.00408 0.000260009 -3.99362e-05)
(1.00446 0.000248039 -4.2362e-05)
(1 2.18396e-05 3.03877e-06)
(1.00003 4.32492e-05 9.71941e-06)
(1.00008 4.33727e-05 1.45714e-05)
(1.00014 3.72667e-05 1.61351e-05)
(1.00022 3.2896e-05 1.49691e-05)