Particle_Number, Age, Distance_Traveled
1, 10, 10.0395
2, 10, 10.0391
3, 10, 10.0395
4, 10, 10.0391
5, 10, 10.0386
6, 10, 10.0391
7, 10, 10.0395
8, 10, 10.0391
9, 10, 10.0395
