Particle_Number, Age, Distance_Traveled
1, 5.10243, 5
2, 5.40561, 5.3
3, 7.42541, 7.3
4, 6.20443, 6.3
5, 3.87402, 3.9
6, 1.33301, 1.3
7, 2.18418, 2.2
8, 3.27779, 3.3
9, 9.78818, 9.9
10, 3.17834, 3.2
