/*--------------------------------*- C++ -*----------------------------------*\
| =========                 |                                                 |
| \\      /  F ield         | OpenFOAM: The Open Source CFD Toolbox           |
|  \\    /   O peration     | Version:  v1806                                 |
|   \\  /    A nd           | Web:      www.OpenFOAM.com                      |
|    \\/     M anipulation  |                                                 |
\*---------------------------------------------------------------------------*/
FoamFile
{
    version     2.0;
    format      ascii;
    class       surfaceScalarField;
    location    "145";
    object      phi;
}
// * * * * * * * * * * * * * * * * * * * * * * * * * * * * * * * * * * * * * //

dimensions      [0 3 -1 0 0 0 0];
oriented        oriented;


internalField   nonuniform List<scalar> 
5500
(
0.00999684
1.58174e-06
1.58174e-06
0.0099923
2.26657e-06
2.26657e-06
0.00998717
2.56867e-06
2.56867e-06
0.00998165
2.75921e-06
2.75921e-06
0.00997583
2.91029e-06
2.9103e-06
0.0099698
3.01521e-06
3.01523e-06
0.00996364
3.07693e-06
3.07694e-06
0.00995742
3.11235e-06
3.11234e-06
0.00995115
3.13498e-06
3.13497e-06
0.00994485
3.15047e-06
3.15053e-06
0.00993853
3.16089e-06
3.16107e-06
0.00993219
3.16804e-06
3.16828e-06
0.00992584
3.17398e-06
3.17417e-06
0.00991948
3.18025e-06
3.18038e-06
0.0099131
3.19087e-06
3.19113e-06
0.00990669
3.2043e-06
3.20486e-06
0.00990019
3.25043e-06
3.25124e-06
0.00989365
3.26952e-06
3.2702e-06
0.00988659
3.53205e-06
3.53231e-06
3.16219e-06
3.16197e-06
0.00999983
1.66784e-07
1.58185e-06
0.00999913
7.00027e-07
2.26679e-06
0.00999823
9.05617e-07
2.56913e-06
0.00999722
1.00651e-06
2.75999e-06
0.00999613
1.08682e-06
2.91144e-06
0.00999499
1.14511e-06
3.01671e-06
0.00999381
1.17756e-06
3.07874e-06
0.00999261
1.19386e-06
3.11449e-06
0.0099914
1.20377e-06
3.1375e-06
0.00999019
1.21103e-06
3.15336e-06
0.00998897
1.21634e-06
3.16418e-06
0.00998775
1.22029e-06
3.17165e-06
0.00998652
1.22385e-06
3.17776e-06
0.00998529
1.22764e-06
3.18416e-06
0.00998405
1.23293e-06
3.19513e-06
0.00998281
1.23853e-06
3.20913e-06
0.00998155
1.24855e-06
3.25593e-06
0.0099803
1.25119e-06
3.27503e-06
0.00997905
1.24497e-06
3.53973e-06
1.36287e-06
3.16887e-06
0.00999847
1.14519e-07
1.58189e-06
0.00999647
4.37166e-07
2.26661e-06
0.0099942
5.99936e-07
2.56846e-06
0.00999179
6.65756e-07
2.75877e-06
0.00998925
7.10619e-07
2.90969e-06
0.00998664
7.47652e-07
3.0144e-06
0.00998397
7.70782e-07
3.07588e-06
0.00998127
7.82518e-07
3.11116e-06
0.00997855
7.89368e-07
3.13369e-06
0.00997581
7.94631e-07
3.14907e-06
0.00997307
7.98811e-07
3.15947e-06
0.00997032
8.02088e-07
3.16665e-06
0.00996757
8.05021e-07
3.17256e-06
0.00996481
8.08115e-07
3.17879e-06
0.00996204
8.1171e-07
3.18964e-06
0.00995926
8.16082e-07
3.20355e-06
0.00995644
8.2023e-07
3.2502e-06
0.0099536
8.27591e-07
3.26913e-06
0.00995049
8.22554e-07
3.53295e-06
8.21882e-07
3.16155e-06
0.00999847
6.26601e-08
1.58188e-06
0.00999645
1.9077e-07
2.26668e-06
0.00999421
2.7299e-07
2.56866e-06
0.0099918
3.11217e-07
2.75915e-06
0.00998927
3.37246e-07
2.91028e-06
0.00998664
3.60899e-07
3.01523e-06
0.00998395
3.7806e-07
3.07696e-06
0.00998124
3.8809e-07
3.11243e-06
0.0099785
3.94155e-07
3.13509e-06
0.00997574
3.98515e-07
3.15055e-06
0.00997298
4.01745e-07
3.16098e-06
0.00997021
4.04051e-07
3.16817e-06
0.00996743
4.05836e-07
3.17405e-06
0.00996465
4.07477e-07
3.18027e-06
0.00996187
4.09223e-07
3.19109e-06
0.00995907
4.1118e-07
3.20488e-06
0.00995622
4.13406e-07
3.25122e-06
0.00995336
4.16394e-07
3.26967e-06
0.00995023
4.20155e-07
3.53302e-06
4.33603e-07
3.16143e-06
0.00999848
1.26054e-12
1.58189e-06
0.0099964
1.14826e-12
2.2667e-06
0.00999411
1.78708e-12
2.56866e-06
0.00999166
4.85966e-12
2.75907e-06
0.00998909
7.91397e-12
2.91008e-06
0.00998643
7.36147e-12
3.01487e-06
0.00998374
8.8772e-12
3.07637e-06
0.00998101
1.56204e-11
3.1116e-06
0.00997827
2.09566e-11
3.1341e-06
0.00997552
2.02121e-11
3.14946e-06
0.00997276
1.86901e-11
3.15975e-06
0.00997
2.50324e-11
3.1667e-06
0.00996723
4.05268e-11
3.17237e-06
0.00996446
5.76091e-11
3.17845e-06
0.00996168
6.99302e-11
3.18921e-06
0.00995889
7.99918e-11
3.20298e-06
0.00995606
9.40794e-11
3.24927e-06
0.00995321
1.15318e-10
3.26767e-06
0.0099501
1.28922e-10
3.53088e-06
1.8421e-10
3.15919e-06
0.00999848
-6.26579e-08
1.58189e-06
0.0099964
-1.90768e-07
2.2667e-06
0.00999411
-2.72986e-07
2.56866e-06
0.00999166
-3.11209e-07
2.75908e-06
0.00998909
-3.37234e-07
2.91008e-06
0.00998643
-3.60882e-07
3.01487e-06
0.00998374
-3.78036e-07
3.07636e-06
0.00998101
-3.88056e-07
3.1116e-06
0.00997827
-3.94116e-07
3.1341e-06
0.00997552
-3.98477e-07
3.14945e-06
0.00997276
-4.01707e-07
3.15974e-06
0.00997
-4.04004e-07
3.16671e-06
0.00996723
-4.05766e-07
3.17239e-06
0.00996446
-4.07379e-07
3.17846e-06
0.00996168
-4.09095e-07
3.18918e-06
0.00995889
-4.11019e-07
3.20291e-06
0.00995606
-4.1321e-07
3.2492e-06
0.00995321
-4.16166e-07
3.26765e-06
0.0099501
-4.1992e-07
3.53091e-06
-4.33321e-07
3.15929e-06
0.00999847
-1.14518e-07
1.58189e-06
0.00999645
-4.37166e-07
2.26668e-06
0.00999421
-5.99929e-07
2.56866e-06
0.0099918
-6.65745e-07
2.75915e-06
0.00998927
-7.10608e-07
2.91028e-06
0.00998664
-7.47638e-07
3.01523e-06
0.00998395
-7.70764e-07
3.07696e-06
0.00998124
-7.82493e-07
3.11243e-06
0.0099785
-7.89335e-07
3.1351e-06
0.00997574
-7.94591e-07
3.15053e-06
0.00997298
-7.98767e-07
3.16095e-06
0.00997021
-8.02039e-07
3.16816e-06
0.00996743
-8.04963e-07
3.17408e-06
0.00996465
-8.08041e-07
3.18029e-06
0.00996187
-8.11606e-07
3.19103e-06
0.00995907
-8.15936e-07
3.20472e-06
0.00995622
-8.20046e-07
3.25104e-06
0.00995336
-8.27397e-07
3.26959e-06
0.00995023
-8.22387e-07
3.53306e-06
-8.21807e-07
3.1616e-06
0.00999847
-1.66781e-07
1.58189e-06
0.00999647
-7.00024e-07
2.26661e-06
0.0099942
-9.05616e-07
2.56846e-06
0.00999179
-1.00651e-06
2.75876e-06
0.00998925
-1.0868e-06
2.90968e-06
0.00998664
-1.14509e-06
3.01439e-06
0.00998397
-1.17755e-06
3.07588e-06
0.00998127
-1.19385e-06
3.11116e-06
0.00997855
-1.20374e-06
3.1337e-06
0.00997581
-1.211e-06
3.14907e-06
0.00997307
-1.21631e-06
3.15944e-06
0.00997032
-1.22024e-06
3.16661e-06
0.00996757
-1.2238e-06
3.17254e-06
0.00996481
-1.22757e-06
3.17878e-06
0.00996204
-1.23284e-06
3.18959e-06
0.00995926
-1.23842e-06
3.20341e-06
0.00995644
-1.24842e-06
3.24999e-06
0.0099536
-1.25107e-06
3.26896e-06
0.00995049
-1.24486e-06
3.53289e-06
-1.36285e-06
3.1616e-06
0.00999983
-1.58174e-06
1.58185e-06
0.00999913
-2.26656e-06
2.26679e-06
0.00999823
-2.56866e-06
2.56914e-06
0.00999722
-2.7592e-06
2.75999e-06
0.00999613
-2.91028e-06
2.91142e-06
0.00999498
-3.01519e-06
3.01669e-06
0.00999381
-3.07689e-06
3.07873e-06
0.00999261
-3.1123e-06
3.11451e-06
0.0099914
-3.13493e-06
3.13753e-06
0.00999019
-3.1504e-06
3.15339e-06
0.00998897
-3.16082e-06
3.16414e-06
0.00998775
-3.16796e-06
3.17156e-06
0.00998652
-3.17388e-06
3.17769e-06
0.00998529
-3.1801e-06
3.18415e-06
0.00998405
-3.19067e-06
3.19513e-06
0.00998281
-3.20406e-06
3.20903e-06
0.00998155
-3.25018e-06
3.25568e-06
0.0099803
-3.2693e-06
3.27472e-06
0.00997905
-3.53185e-06
3.53948e-06
-3.16202e-06
3.1687e-06
0.00999684
1.58174e-06
0.0099923
2.26657e-06
0.00998717
2.56867e-06
0.00998165
2.75921e-06
0.00997583
2.91029e-06
0.0099698
3.01521e-06
0.00996364
3.07693e-06
0.00995742
3.11236e-06
0.00995115
3.13501e-06
0.00994485
3.15054e-06
0.00993853
3.161e-06
0.00993219
3.16815e-06
0.00992584
3.17406e-06
0.00991948
3.18037e-06
0.0099131
3.19115e-06
0.00990669
3.20474e-06
0.00990019
3.25084e-06
0.00989365
3.26958e-06
0.00988659
3.53163e-06
3.16136e-06
0.00999983
1.58185e-06
1.66783e-07
0.00999913
2.26679e-06
7.00027e-07
0.00999823
2.56914e-06
9.05619e-07
0.00999722
2.75999e-06
1.00651e-06
0.00999613
2.91142e-06
1.08681e-06
0.00999499
3.01669e-06
1.1451e-06
0.00999381
3.07873e-06
1.17756e-06
0.00999261
3.11451e-06
1.19387e-06
0.0099914
3.13751e-06
1.20379e-06
0.00999019
3.1533e-06
1.21109e-06
0.00998897
3.164e-06
1.21641e-06
0.00998775
3.17142e-06
1.22035e-06
0.00998652
3.1776e-06
1.22391e-06
0.00998529
3.18404e-06
1.22776e-06
0.00998405
3.19486e-06
1.23321e-06
0.00998281
3.20853e-06
1.23893e-06
0.00998156
3.25507e-06
1.24885e-06
0.0099803
3.27433e-06
1.25103e-06
0.00997905
3.5395e-06
1.24419e-06
3.16916e-06
1.36071e-06
0.0100028
1.66721e-07
1.66721e-07
0.010006
7.00109e-07
7.00109e-07
0.0100093
9.05993e-07
9.05995e-07
0.0100128
1.0072e-06
1.0072e-06
0.0100164
1.08785e-06
1.08785e-06
0.0100202
1.1465e-06
1.1465e-06
0.010024
1.17929e-06
1.17929e-06
0.0100278
1.19592e-06
1.19592e-06
0.0100317
1.20616e-06
1.20618e-06
0.0100356
1.21373e-06
1.21378e-06
0.0100395
1.21934e-06
1.2194e-06
0.0100433
1.22357e-06
1.22361e-06
0.0100472
1.22734e-06
1.2274e-06
0.0100512
1.23125e-06
1.2314e-06
0.0100551
1.23668e-06
1.237e-06
0.010059
1.24247e-06
1.24291e-06
0.010063
1.25272e-06
1.25302e-06
0.010067
1.25556e-06
1.25532e-06
0.0100716
1.2487e-06
1.2478e-06
1.368e-06
1.36565e-06
0.0100015
1.14525e-07
1.6671e-07
0.0100033
4.37216e-07
7.00074e-07
0.0100053
6.0005e-07
9.05856e-07
0.0100074
6.65964e-07
1.00691e-06
0.0100096
7.10939e-07
1.08743e-06
0.0100118
7.48073e-07
1.14592e-06
0.0100141
7.71306e-07
1.17852e-06
0.0100165
7.83178e-07
1.19502e-06
0.0100188
7.90186e-07
1.20516e-06
0.0100212
7.95609e-07
1.21261e-06
0.0100235
7.99974e-07
1.21809e-06
0.0100259
8.03469e-07
1.22223e-06
0.0100283
8.0659e-07
1.22596e-06
0.0100306
8.09802e-07
1.22989e-06
0.010033
8.13497e-07
1.23541e-06
0.0100354
8.18038e-07
1.24128e-06
0.0100378
8.22392e-07
1.25133e-06
0.0100403
8.30018e-07
1.25346e-06
0.010043
8.25038e-07
1.24604e-06
8.24747e-07
1.3626e-06
0.0100015
6.26616e-08
1.66704e-07
0.0100033
1.90778e-07
7.0004e-07
0.0100053
2.73039e-07
9.05792e-07
0.0100074
3.11358e-07
1.00682e-06
0.0100096
3.37487e-07
1.08729e-06
0.0100118
3.6126e-07
1.14574e-06
0.0100141
3.78602e-07
1.17834e-06
0.0100164
3.88843e-07
1.19484e-06
0.0100188
3.9508e-07
1.20494e-06
0.0100211
3.99555e-07
1.21232e-06
0.0100234
4.02912e-07
1.21775e-06
0.0100258
4.0541e-07
1.22185e-06
0.0100281
4.07407e-07
1.22555e-06
0.0100305
4.09206e-07
1.22943e-06
0.0100328
4.11044e-07
1.23489e-06
0.0100352
4.13084e-07
1.24065e-06
0.0100376
4.15399e-07
1.25054e-06
0.01004
4.18504e-07
1.25244e-06
0.0100427
4.22162e-07
1.24479e-06
4.35633e-07
1.36045e-06
0.0100015
1.3212e-12
1.667e-07
0.0100032
1.17586e-12
7.00032e-07
0.0100052
2.81846e-12
9.05791e-07
0.0100072
4.69817e-12
1.00682e-06
0.0100094
5.23802e-12
1.0873e-06
0.0100116
7.05642e-12
1.14577e-06
0.0100139
9.32366e-12
1.17836e-06
0.0100162
1.15466e-11
1.19482e-06
0.0100185
1.66705e-11
1.20489e-06
0.0100209
2.23707e-11
1.21229e-06
0.0100232
2.35638e-11
1.21773e-06
0.0100256
2.30395e-11
1.22182e-06
0.0100279
2.70865e-11
1.2255e-06
0.0100303
3.51547e-11
1.22936e-06
0.0100326
4.42294e-11
1.23481e-06
0.010035
5.71442e-11
1.24055e-06
0.0100374
7.66629e-11
1.25041e-06
0.0100399
9.9063e-11
1.25228e-06
0.0100426
1.11553e-10
1.24463e-06
1.42498e-10
1.35994e-06
0.0100015
-6.26593e-08
1.667e-07
0.0100032
-1.90775e-07
7.00032e-07
0.0100052
-2.73034e-07
9.0579e-07
0.0100072
-3.11349e-07
1.00682e-06
0.0100094
-3.37474e-07
1.0873e-06
0.0100116
-3.61243e-07
1.14577e-06
0.0100139
-3.78584e-07
1.17836e-06
0.0100162
-3.88824e-07
1.19481e-06
0.0100185
-3.95053e-07
1.20489e-06
0.0100209
-3.99514e-07
1.2123e-06
0.0100232
-4.02862e-07
1.21773e-06
0.0100256
-4.0536e-07
1.22182e-06
0.0100279
-4.07355e-07
1.22549e-06
0.0100303
-4.09141e-07
1.22935e-06
0.0100326
-4.10956e-07
1.23478e-06
0.010035
-4.12965e-07
1.24052e-06
0.0100374
-4.15249e-07
1.2504e-06
0.0100399
-4.18336e-07
1.25231e-06
0.0100426
-4.22002e-07
1.2447e-06
-4.35477e-07
1.36015e-06
0.0100015
-1.14523e-07
1.66704e-07
0.0100033
-4.37214e-07
7.0004e-07
0.0100053
-6.00045e-07
9.05792e-07
0.0100074
-6.65957e-07
1.00681e-06
0.0100096
-7.10926e-07
1.08729e-06
0.0100118
-7.48056e-07
1.14575e-06
0.0100141
-7.71287e-07
1.17834e-06
0.0100164
-7.83159e-07
1.19483e-06
0.0100188
-7.90166e-07
1.20493e-06
0.0100211
-7.95577e-07
1.21233e-06
0.0100234
-7.99927e-07
1.21775e-06
0.0100258
-8.03417e-07
1.22184e-06
0.0100281
-8.06541e-07
1.22554e-06
0.0100305
-8.09746e-07
1.2294e-06
0.0100328
-8.13415e-07
1.23482e-06
0.0100352
-8.17923e-07
1.24056e-06
0.0100376
-8.22263e-07
1.25049e-06
0.01004
-8.29914e-07
1.25251e-06
0.0100427
-8.25001e-07
1.24496e-06
-8.24891e-07
1.36093e-06
0.0100015
-1.6672e-07
1.66709e-07
0.0100033
-7.00108e-07
7.00073e-07
0.0100053
-9.05989e-07
9.05857e-07
0.0100074
-1.00719e-06
1.00691e-06
0.0100096
-1.08784e-06
1.08743e-06
0.0100118
-1.14649e-06
1.14592e-06
0.0100141
-1.17927e-06
1.17853e-06
0.0100165
-1.1959e-06
1.19502e-06
0.0100188
-1.20614e-06
1.20515e-06
0.0100212
-1.21372e-06
1.2126e-06
0.0100235
-1.21931e-06
1.21809e-06
0.0100259
-1.22352e-06
1.22222e-06
0.0100283
-1.2273e-06
1.22595e-06
0.0100306
-1.2312e-06
1.22985e-06
0.010033
-1.23661e-06
1.23533e-06
0.0100354
-1.24238e-06
1.24116e-06
0.0100378
-1.25264e-06
1.25124e-06
0.0100403
-1.25552e-06
1.25349e-06
0.010043
-1.24875e-06
1.24619e-06
-1.36828e-06
1.36304e-06
0.0100028
-1.58184e-06
1.66721e-07
0.010006
-2.26679e-06
7.00109e-07
0.0100093
-2.56913e-06
9.05992e-07
0.0100128
-2.75997e-06
1.0072e-06
0.0100164
-2.9114e-06
1.08785e-06
0.0100202
-3.01665e-06
1.1465e-06
0.010024
-3.07869e-06
1.17929e-06
0.0100278
-3.11447e-06
1.19592e-06
0.0100317
-3.13747e-06
1.20617e-06
0.0100356
-3.15325e-06
1.21376e-06
0.0100395
-3.16393e-06
1.21938e-06
0.0100433
-3.17135e-06
1.2236e-06
0.0100472
-3.17752e-06
1.2274e-06
0.0100512
-3.18394e-06
1.23139e-06
0.0100551
-3.19471e-06
1.23694e-06
0.010059
-3.20834e-06
1.24279e-06
0.010063
-3.25492e-06
1.25287e-06
0.010067
-3.27428e-06
1.25526e-06
0.0100716
-3.53958e-06
1.24791e-06
-3.16935e-06
1.36599e-06
0.00999983
1.66783e-07
0.00999913
7.00027e-07
0.00999823
9.05617e-07
0.00999722
1.00651e-06
0.00999613
1.08681e-06
0.00999499
1.14511e-06
0.00999381
1.17757e-06
0.00999261
1.19387e-06
0.0099914
1.20378e-06
0.00999019
1.21105e-06
0.00998897
1.21637e-06
0.00998775
1.22032e-06
0.00998652
1.2239e-06
0.00998529
1.22776e-06
0.00998405
1.23314e-06
0.00998281
1.23873e-06
0.00998156
1.24853e-06
0.0099803
1.25072e-06
0.00997905
1.244e-06
1.36061e-06
0.00999847
1.58189e-06
1.1452e-07
0.00999647
2.26661e-06
4.37167e-07
0.0099942
2.56846e-06
5.99936e-07
0.00999179
2.75877e-06
6.65752e-07
0.00998925
2.90967e-06
7.10608e-07
0.00998664
3.01438e-06
7.4764e-07
0.00998397
3.07587e-06
7.70787e-07
0.00998127
3.11117e-06
7.82549e-07
0.00997855
3.1337e-06
7.89413e-07
0.00997581
3.14899e-06
7.94658e-07
0.00997307
3.15927e-06
7.988e-07
0.00997032
3.16642e-06
8.02077e-07
0.00996757
3.17241e-06
8.05106e-07
0.00996481
3.1787e-06
8.08385e-07
0.00996204
3.18938e-06
8.12141e-07
0.00995926
3.20293e-06
8.16477e-07
0.00995644
3.24928e-06
8.20294e-07
0.0099536
3.26834e-06
8.27016e-07
0.00995049
3.53264e-06
8.21379e-07
3.16174e-06
8.18835e-07
0.0100015
1.6671e-07
1.14525e-07
0.0100033
7.00073e-07
4.37216e-07
0.0100053
9.05856e-07
6.0005e-07
0.0100074
1.00691e-06
6.65961e-07
0.0100096
1.08743e-06
7.10929e-07
0.0100118
1.14592e-06
7.48066e-07
0.0100141
1.17853e-06
7.71317e-07
0.0100165
1.19503e-06
7.83212e-07
0.0100188
1.20513e-06
7.90224e-07
0.0100212
1.21256e-06
7.95616e-07
0.0100235
1.21803e-06
7.9994e-07
0.0100259
1.22218e-06
8.03453e-07
0.0100283
1.22589e-06
8.06706e-07
0.0100306
1.22972e-06
8.10128e-07
0.010033
1.23508e-06
8.13971e-07
0.0100354
1.24086e-06
8.18426e-07
0.0100378
1.25108e-06
8.22386e-07
0.0100403
1.25375e-06
8.2934e-07
0.010043
1.24695e-06
8.23739e-07
1.36493e-06
8.21499e-07
0.0100001
1.14515e-07
1.14515e-07
0.0100006
4.37222e-07
4.37222e-07
0.0100012
6.00061e-07
6.00062e-07
0.0100019
6.65956e-07
6.65953e-07
0.0100027
7.10907e-07
7.10898e-07
0.0100035
7.4801e-07
7.48003e-07
0.0100043
7.71204e-07
7.71213e-07
0.0100051
7.83045e-07
7.83077e-07
0.0100059
7.90015e-07
7.90049e-07
0.0100068
7.95376e-07
7.95375e-07
0.0100076
7.99694e-07
7.99657e-07
0.0100085
8.03181e-07
8.03181e-07
0.0100093
8.06288e-07
8.0644e-07
0.0100101
8.09448e-07
8.09806e-07
0.010011
8.13092e-07
8.13563e-07
0.0100118
8.1762e-07
8.17958e-07
0.0100127
8.21976e-07
8.21893e-07
0.0100135
8.29478e-07
8.28739e-07
0.0100144
8.24367e-07
8.23052e-07
8.23139e-07
8.19882e-07
0.0100001
6.26624e-08
1.14508e-07
0.0100006
1.90787e-07
4.372e-07
0.0100012
2.73044e-07
6.00023e-07
0.0100019
3.11326e-07
6.65892e-07
0.0100027
3.37399e-07
7.10808e-07
0.0100035
3.61129e-07
7.47894e-07
0.0100043
3.78439e-07
7.71097e-07
0.0100051
3.88628e-07
7.82949e-07
0.0100059
3.94779e-07
7.89893e-07
0.0100067
3.99153e-07
7.95179e-07
0.0100075
4.02444e-07
7.99426e-07
0.0100083
4.04935e-07
8.02922e-07
0.0100092
4.06941e-07
8.06136e-07
0.01001
4.0871e-07
8.09426e-07
0.0100108
4.10488e-07
8.13098e-07
0.0100116
4.12475e-07
8.1742e-07
0.0100125
4.14757e-07
8.21279e-07
0.0100133
4.17784e-07
8.27983e-07
0.0100141
4.21396e-07
8.22123e-07
4.34389e-07
8.18219e-07
0.0100001
1.41079e-12
1.14505e-07
0.0100006
1.16921e-12
4.37192e-07
0.0100011
2.43506e-12
6.00017e-07
0.0100018
3.42067e-12
6.65888e-07
0.0100025
4.40623e-12
7.10812e-07
0.0100033
8.65666e-12
7.47916e-07
0.0100041
9.1359e-12
7.71125e-07
0.0100049
7.83867e-12
7.82952e-07
0.0100057
1.7091e-11
7.89866e-07
0.0100065
2.9491e-11
7.95151e-07
0.0100073
2.83779e-11
7.99424e-07
0.0100081
1.91351e-11
8.02952e-07
0.010009
1.70362e-11
8.06184e-07
0.0100098
2.09727e-11
8.09473e-07
0.0100106
2.42116e-11
8.1313e-07
0.0100115
3.54726e-11
8.17436e-07
0.0100123
6.81726e-11
8.21285e-07
0.0100131
1.27104e-10
8.27964e-07
0.010014
1.80532e-10
8.22087e-07
3.77098e-10
8.18006e-07
0.0100001
-6.26601e-08
1.14504e-07
0.0100006
-1.90785e-07
4.37192e-07
0.0100011
-2.7304e-07
6.00017e-07
0.0100018
-3.11317e-07
6.65888e-07
0.0100025
-3.37387e-07
7.10813e-07
0.0100033
-3.61115e-07
7.47915e-07
0.0100041
-3.78425e-07
7.7112e-07
0.0100049
-3.88613e-07
7.82948e-07
0.0100057
-3.94746e-07
7.8987e-07
0.0100065
-3.99096e-07
7.9516e-07
0.0100073
-4.02385e-07
7.99426e-07
0.0100081
-4.04892e-07
8.02942e-07
0.010009
-4.06905e-07
8.06168e-07
0.0100098
-4.08668e-07
8.09453e-07
0.0100106
-4.10437e-07
8.13104e-07
0.0100115
-4.12407e-07
8.17415e-07
0.0100123
-4.14645e-07
8.21291e-07
0.0100131
-4.17593e-07
8.28018e-07
0.010014
-4.2113e-07
8.22182e-07
-4.33894e-07
8.18246e-07
0.0100001
-1.14513e-07
1.14508e-07
0.0100006
-4.3722e-07
4.372e-07
0.0100012
-6.00057e-07
6.00023e-07
0.0100019
-6.65948e-07
6.65892e-07
0.0100027
-7.10895e-07
7.10809e-07
0.0100035
-7.47996e-07
7.47894e-07
0.0100043
-7.71185e-07
7.71091e-07
0.0100051
-7.83025e-07
7.82941e-07
0.0100059
-7.89993e-07
7.89894e-07
0.0100067
-7.95341e-07
7.95191e-07
0.0100075
-7.99646e-07
7.99431e-07
0.0100083
-8.03134e-07
8.0291e-07
0.0100092
-8.06247e-07
8.06104e-07
0.01001
-8.09402e-07
8.09367e-07
0.0100108
-8.13032e-07
8.13012e-07
0.0100116
-8.17549e-07
8.17343e-07
0.0100125
-8.21902e-07
8.21276e-07
0.0100133
-8.29406e-07
8.28106e-07
0.0100141
-8.24304e-07
8.22352e-07
-8.23206e-07
8.18789e-07
0.0100001
-1.66708e-07
1.14515e-07
0.0100006
-7.00072e-07
4.37221e-07
0.0100012
-9.0585e-07
6.00061e-07
0.0100019
-1.0069e-06
6.65953e-07
0.0100027
-1.08742e-06
7.10898e-07
0.0100035
-1.14591e-06
7.48007e-07
0.0100043
-1.17851e-06
7.71215e-07
0.0100051
-1.195e-06
7.83069e-07
0.0100059
-1.20512e-06
7.90036e-07
0.0100068
-1.21254e-06
7.95372e-07
0.0100076
-1.21799e-06
7.99667e-07
0.0100085
-1.22213e-06
8.03187e-07
0.0100093
-1.22586e-06
8.06411e-07
0.0100101
-1.22969e-06
8.09715e-07
0.010011
-1.23504e-06
8.13413e-07
0.0100118
-1.24079e-06
8.17814e-07
0.0100127
-1.25102e-06
8.21851e-07
0.0100135
-1.25375e-06
8.28868e-07
0.0100144
-1.24702e-06
8.23324e-07
-1.36534e-06
8.20525e-07
0.0100015
-1.58189e-06
1.14525e-07
0.0100033
-2.26661e-06
4.37216e-07
0.0100053
-2.56845e-06
6.00049e-07
0.0100074
-2.75875e-06
6.65961e-07
0.0100096
-2.90965e-06
7.10931e-07
0.0100118
-3.01435e-06
7.4807e-07
0.0100141
-3.07584e-06
7.71318e-07
0.0100165
-3.11114e-06
7.83199e-07
0.0100188
-3.13366e-06
7.90199e-07
0.0100212
-3.14893e-06
7.95601e-07
0.0100235
-3.15919e-06
7.99957e-07
0.0100259
-3.16634e-06
8.03485e-07
0.0100283
-3.17236e-06
8.06694e-07
0.0100306
-3.17865e-06
8.10017e-07
0.010033
-3.18929e-06
8.13762e-07
0.0100354
-3.2028e-06
8.18204e-07
0.0100378
-3.2492e-06
8.22282e-07
0.0100403
-3.26839e-06
8.29459e-07
0.010043
-3.53283e-06
8.24052e-07
-3.16212e-06
8.22223e-07
0.00999847
1.1452e-07
0.00999647
4.37167e-07
0.0099942
5.99935e-07
0.00999179
6.65753e-07
0.00998925
7.10613e-07
0.00998664
7.47647e-07
0.00998397
7.70789e-07
0.00998127
7.82536e-07
0.00997855
7.89379e-07
0.00997582
7.94627e-07
0.00997307
7.9881e-07
0.00997033
8.0212e-07
0.00996757
8.05106e-07
0.00996481
8.08249e-07
0.00996204
8.11841e-07
0.00995926
8.16098e-07
0.00995644
8.1999e-07
0.0099536
8.26927e-07
0.00995049
8.21466e-07
8.19182e-07
0.00999847
1.58189e-06
6.26608e-08
0.00999645
2.26668e-06
1.9077e-07
0.00999421
2.56866e-06
2.72989e-07
0.0099918
2.75915e-06
3.11212e-07
0.00998927
2.91027e-06
3.37239e-07
0.00998664
3.01521e-06
3.60903e-07
0.00998395
3.07695e-06
3.78084e-07
0.00998124
3.11244e-06
3.88113e-07
0.0099785
3.1351e-06
3.94151e-07
0.00997574
3.15047e-06
3.98484e-07
0.00997298
3.16078e-06
4.01724e-07
0.00997021
3.16795e-06
4.04083e-07
0.00996743
3.17394e-06
4.05923e-07
0.00996465
3.18022e-06
4.07575e-07
0.00996187
3.19085e-06
4.09266e-07
0.00995907
3.20421e-06
4.11104e-07
0.00995622
3.25022e-06
4.13161e-07
0.00995336
3.2688e-06
4.15889e-07
0.00995023
3.53262e-06
4.19379e-07
3.16146e-06
4.31677e-07
0.0100015
1.66704e-07
6.2662e-08
0.0100033
7.0004e-07
1.90777e-07
0.0100053
9.05791e-07
2.73038e-07
0.0100074
1.00681e-06
3.11353e-07
0.0100096
1.08729e-06
3.37482e-07
0.0100118
1.14575e-06
3.6127e-07
0.0100141
1.17835e-06
3.78629e-07
0.0100164
1.19484e-06
3.88861e-07
0.0100188
1.20491e-06
3.95065e-07
0.0100211
1.21227e-06
3.9952e-07
0.0100234
1.21769e-06
4.02899e-07
0.0100258
1.2218e-06
4.05455e-07
0.0100281
1.22548e-06
4.07503e-07
0.0100305
1.22927e-06
4.09303e-07
0.0100328
1.23458e-06
4.11075e-07
0.0100352
1.24025e-06
4.12993e-07
0.0100376
1.2503e-06
4.15144e-07
0.01004
1.25271e-06
4.17997e-07
0.0100427
1.24566e-06
4.21378e-07
1.36266e-06
4.33694e-07
0.0100001
1.14508e-07
6.26627e-08
0.0100006
4.37199e-07
1.90786e-07
0.0100012
6.00022e-07
2.73043e-07
0.0100019
6.65894e-07
3.11321e-07
0.0100027
7.10818e-07
3.37395e-07
0.0100035
7.47904e-07
3.61141e-07
0.0100043
7.71087e-07
3.78462e-07
0.0100051
7.82915e-07
3.8864e-07
0.0100059
7.89857e-07
3.94763e-07
0.0100067
7.95179e-07
3.99124e-07
0.0100075
7.99458e-07
4.02439e-07
0.0100083
8.02912e-07
4.04984e-07
0.0100092
8.05978e-07
4.07033e-07
0.01001
8.09081e-07
4.08794e-07
0.0100108
8.12664e-07
4.10506e-07
0.0100116
8.17127e-07
4.12388e-07
0.0100125
8.21383e-07
4.14529e-07
0.0100133
8.28695e-07
4.17321e-07
0.0100141
8.23371e-07
4.20654e-07
8.21381e-07
4.32488e-07
0.0100001
6.266e-08
6.26604e-08
0.0100006
1.90778e-07
1.90778e-07
0.0100013
2.73027e-07
2.73026e-07
0.010002
3.11297e-07
3.11292e-07
0.0100027
3.37364e-07
3.37359e-07
0.0100035
3.61083e-07
3.61091e-07
0.0100043
3.78363e-07
3.78385e-07
0.0100051
3.88522e-07
3.88538e-07
0.0100058
3.94665e-07
3.94656e-07
0.0100066
3.99047e-07
3.99022e-07
0.0100074
4.02335e-07
4.0233e-07
0.0100082
4.04792e-07
4.04834e-07
0.010009
4.06732e-07
4.0681e-07
0.0100098
4.08424e-07
4.08491e-07
0.0100106
4.10146e-07
4.10159e-07
0.0100114
4.12114e-07
4.12047e-07
0.0100123
4.14382e-07
4.14203e-07
0.0100131
4.17346e-07
4.16946e-07
0.0100139
4.20866e-07
4.2018e-07
4.33535e-07
4.31695e-07
0.0100001
1.35122e-12
6.26587e-08
0.0100006
1.10062e-12
1.90775e-07
0.0100012
2.4258e-12
2.73024e-07
0.0100018
4.13895e-12
3.11294e-07
0.0100025
5.37678e-12
3.37365e-07
0.0100033
7.18946e-12
3.61096e-07
0.010004
6.26704e-12
3.78383e-07
0.0100048
8.35162e-12
3.8853e-07
0.0100056
2.16491e-11
3.94653e-07
0.0100064
3.19493e-11
3.99037e-07
0.0100072
2.41393e-11
4.02358e-07
0.010008
1.19232e-11
4.04857e-07
0.0100088
1.15099e-11
4.06809e-07
0.0100096
1.21208e-11
4.08471e-07
0.0100104
2.26781e-12
4.10142e-07
0.0100113
1.35919e-12
4.12055e-07
0.0100121
4.06198e-11
4.14239e-07
0.0100129
1.35275e-10
4.16985e-07
0.0100137
2.3927e-10
4.20183e-07
6.0418e-10
4.31633e-07
0.0100001
-6.26577e-08
6.26587e-08
0.0100006
-1.90776e-07
1.90775e-07
0.0100012
-2.73023e-07
2.73024e-07
0.0100018
-3.11289e-07
3.11294e-07
0.0100025
-3.37352e-07
3.37364e-07
0.0100033
-3.61067e-07
3.61095e-07
0.010004
-3.78348e-07
3.78383e-07
0.0100048
-3.88501e-07
3.8853e-07
0.0100056
-3.94626e-07
3.94654e-07
0.0100064
-3.98995e-07
3.99036e-07
0.0100072
-4.02294e-07
4.0235e-07
0.010008
-4.04765e-07
4.04846e-07
0.0100088
-4.06699e-07
4.06808e-07
0.0100096
-4.08387e-07
4.08482e-07
0.0100104
-4.10133e-07
4.10151e-07
0.0100113
-4.12123e-07
4.12049e-07
0.0100121
-4.14352e-07
4.14222e-07
0.0100129
-4.17175e-07
4.16978e-07
0.0100137
-4.20523e-07
4.20206e-07
-4.32703e-07
4.31729e-07
0.0100001
-1.14506e-07
6.26603e-08
0.0100006
-4.37198e-07
1.90778e-07
0.0100013
-6.00018e-07
2.73026e-07
0.010002
-6.65886e-07
3.11292e-07
0.0100027
-7.10807e-07
3.37358e-07
0.0100035
-7.4789e-07
3.61089e-07
0.0100043
-7.71067e-07
3.78383e-07
0.0100051
-7.82889e-07
3.88538e-07
0.0100058
-7.89832e-07
3.94661e-07
0.0100066
-7.95153e-07
3.99023e-07
0.0100074
-7.99429e-07
4.02313e-07
0.0100082
-8.02873e-07
4.04807e-07
0.010009
-8.05924e-07
4.06797e-07
0.0100098
-8.09021e-07
4.08499e-07
0.0100106
-8.12632e-07
4.10165e-07
0.0100114
-8.1715e-07
4.12026e-07
0.0100123
-8.21442e-07
4.14165e-07
0.0100131
-8.28727e-07
4.16938e-07
0.0100139
-8.23331e-07
4.20242e-07
-8.21343e-07
4.31961e-07
0.0100001
-1.66703e-07
6.26626e-08
0.0100006
-7.00038e-07
1.90786e-07
0.0100012
-9.05788e-07
2.73043e-07
0.0100019
-1.00681e-06
3.11321e-07
0.0100027
-1.08728e-06
3.37396e-07
0.0100035
-1.14573e-06
3.61138e-07
0.0100043
-1.17833e-06
3.78456e-07
0.0100051
-1.19481e-06
3.88637e-07
0.0100059
-1.2049e-06
3.94769e-07
0.0100067
-1.21226e-06
3.9913e-07
0.0100075
-1.21766e-06
4.02427e-07
0.0100083
-1.22175e-06
4.04951e-07
0.0100092
-1.22544e-06
4.06995e-07
0.01001
-1.22923e-06
4.08767e-07
0.0100108
-1.23455e-06
4.10486e-07
0.0100116
-1.24026e-06
4.12365e-07
0.0100125
-1.25037e-06
4.14511e-07
0.0100133
-1.25285e-06
4.17346e-07
0.0100141
-1.24583e-06
4.20751e-07
-1.36317e-06
4.32864e-07
0.0100015
-1.58188e-06
6.26617e-08
0.0100033
-2.26667e-06
1.90777e-07
0.0100053
-2.56865e-06
2.73038e-07
0.0100074
-2.75914e-06
3.11354e-07
0.0100096
-2.91025e-06
3.37483e-07
0.0100118
-3.01518e-06
3.61266e-07
0.0100141
-3.07691e-06
3.78617e-07
0.0100164
-3.1124e-06
3.88851e-07
0.0100188
-3.13506e-06
3.9507e-07
0.0100211
-3.15042e-06
3.99535e-07
0.0100234
-3.16071e-06
4.02907e-07
0.0100258
-3.16788e-06
4.05434e-07
0.0100281
-3.1739e-06
4.07449e-07
0.0100305
-3.18019e-06
4.09231e-07
0.0100328
-3.19082e-06
4.11011e-07
0.0100352
-3.20422e-06
4.12959e-07
0.0100376
-3.25031e-06
4.15155e-07
0.01004
-3.26899e-06
4.18078e-07
0.0100427
-3.53294e-06
4.21539e-07
-3.16205e-06
4.34212e-07
0.00999847
6.26604e-08
0.00999645
1.9077e-07
0.00999421
2.72989e-07
0.0099918
3.11214e-07
0.00998927
3.37243e-07
0.00998664
3.60902e-07
0.00998395
3.78071e-07
0.00998124
3.88095e-07
0.0099785
3.94143e-07
0.00997574
3.98495e-07
0.00997298
4.01744e-07
0.00997021
4.04076e-07
0.00996743
4.05859e-07
0.00996465
4.07458e-07
0.00996187
4.09134e-07
0.00995907
4.11003e-07
0.00995622
4.13113e-07
0.00995337
4.15908e-07
0.00995023
4.1945e-07
4.32028e-07
0.00999848
1.58189e-06
9.53343e-13
0.0099964
2.26671e-06
5.88965e-13
0.00999411
2.56867e-06
1.49916e-12
0.00999166
2.75908e-06
3.99564e-12
0.00998909
2.91008e-06
1.24759e-11
0.00998643
3.01485e-06
1.89985e-11
0.00998374
3.07635e-06
1.49626e-11
0.00998101
3.1116e-06
3.32075e-12
0.00997827
3.13409e-06
-5.32088e-12
0.00997552
3.14937e-06
2.60875e-12
0.00997276
3.15955e-06
3.13429e-11
0.00997
3.16651e-06
5.69977e-11
0.00996724
3.17228e-06
3.39527e-11
0.00996446
3.1784e-06
-6.0536e-11
0.00996168
3.18895e-06
-1.85831e-10
0.00995889
3.20227e-06
-2.53987e-10
0.00995606
3.24823e-06
-2.06723e-10
0.00995321
3.26677e-06
-5.16029e-11
0.0099501
3.53046e-06
7.33541e-11
3.15922e-06
3.766e-10
0.0100015
1.667e-07
8.83075e-13
0.0100032
7.00032e-07
2.92824e-13
0.0100052
9.0579e-07
1.41365e-12
0.0100072
1.00682e-06
4.96681e-12
0.0100094
1.0873e-06
1.26958e-11
0.0100116
1.14577e-06
1.88004e-11
0.0100139
1.17837e-06
1.21591e-11
0.0100162
1.19482e-06
-2.20984e-12
0.0100185
1.20487e-06
-6.01907e-12
0.0100209
1.21224e-06
1.01911e-11
0.0100232
1.21767e-06
3.9217e-11
0.0100256
1.22178e-06
5.60993e-11
0.0100279
1.22544e-06
2.26743e-11
0.0100303
1.22922e-06
-7.93695e-11
0.0100326
1.2345e-06
-2.07872e-10
0.010035
1.24013e-06
-2.72689e-10
0.0100374
1.25014e-06
-2.10082e-10
0.0100399
1.25252e-06
-3.34368e-11
0.0100426
1.2455e-06
1.45994e-10
1.36218e-06
5.40416e-10
0.0100001
1.14505e-07
8.95025e-13
0.0100006
4.37192e-07
1.28879e-13
0.0100011
6.00016e-07
1.25243e-12
0.0100018
6.6589e-07
4.96632e-12
0.0100025
7.10822e-07
1.33938e-11
0.0100033
7.47925e-07
2.00312e-11
0.0100041
7.71114e-07
1.01368e-11
0.0100049
7.82918e-07
-6.19009e-12
0.0100057
7.89831e-07
-3.84649e-12
0.0100065
7.9515e-07
1.81864e-11
0.0100073
7.99455e-07
4.12185e-11
0.0100081
8.02942e-07
4.47495e-11
0.010009
8.06034e-07
3.30502e-12
0.0100098
8.09142e-07
-9.59428e-11
0.0100106
8.12708e-07
-2.11661e-10
0.0100115
8.17142e-07
-2.55341e-10
0.0100123
8.21373e-07
-1.67109e-10
0.0100131
8.28657e-07
3.98684e-11
0.010014
8.23327e-07
2.38987e-10
8.21222e-07
8.19507e-10
0.0100001
6.26583e-08
8.69741e-13
0.0100006
1.90775e-07
2.97586e-14
0.0100012
2.73024e-07
1.07704e-12
0.0100018
3.11299e-07
5.05936e-12
0.0100025
3.37371e-07
1.39005e-11
0.0100033
3.61086e-07
1.85575e-11
0.010004
3.78357e-07
7.03298e-12
0.0100048
3.88511e-07
-6.72529e-12
0.0100056
3.94665e-07
3.09923e-13
0.0100064
3.99069e-07
2.31842e-11
0.0100072
4.02369e-07
4.01998e-11
0.010008
4.04813e-07
3.46157e-11
0.0100088
4.06724e-07
-1.2054e-11
0.0100096
4.08394e-07
-1.08149e-10
0.0100104
4.10119e-07
-2.11618e-10
0.0100113
4.12115e-07
-2.37268e-10
0.0100121
4.14419e-07
-1.30846e-10
0.0100129
4.17396e-07
9.25211e-11
0.0100137
4.20888e-07
3.08399e-10
4.33498e-07
1.0324e-09
0.0100001
1.32194e-12
8.61669e-13
0.0100005
1.12749e-12
1.43895e-14
0.0100011
2.51441e-12
9.8609e-13
0.0100017
4.21976e-12
4.92065e-12
0.0100024
4.22972e-12
1.34448e-11
0.0100031
5.65037e-12
1.85829e-11