/*--------------------------------*- C++ -*----------------------------------*\
| =========                 |                                                 |
| \\      /  F ield         | OpenFOAM: The Open Source CFD Toolbox           |
|  \\    /   O peration     | Version:  v1806                                 |
|   \\  /    A nd           | Web:      www.OpenFOAM.com                      |
|    \\/     M anipulation  |                                                 |
\*---------------------------------------------------------------------------*/
FoamFile
{
    version     2.0;
    format      ascii;
    class       volScalarField;
    location    "145";
    object      Q;
}
// * * * * * * * * * * * * * * * * * * * * * * * * * * * * * * * * * * * * * //

dimensions      [0 0 -2 0 0 0 0];


internalField   nonuniform List<scalar> 
2000
(
-0.0209323
-0.0143182
-0.00922822
-0.00668161
-0.00530741
-0.00420858
-0.00328296
-0.00259735
-0.0021158
-0.00176062
-0.00148473
-0.00127153
-0.00110917
-0.00100712
-0.000929005
-0.00106783
-0.000972974
-0.00230288
-0.00117617
0.000778654
-0.0104697
-0.0071644
-0.00461833
-0.00334375
-0.00265609
-0.00210528
-0.0016407
-0.00129684
-0.00105529
-0.000876826
-0.000738058
-0.000630699
-0.000548412
-0.000496386
-0.000456959
-0.000528665
-0.000480377
-0.00116061
-0.000591018
0.000399128
-0.0104672
-0.00715978
-0.00461258
-0.00333757
-0.00264938
-0.00209823
-0.00163427
-0.00129124
-0.00104986
-0.000871385
-0.000733315
-0.000626892
-0.000544892
-0.000492927
-0.000454228
-0.000526301
-0.000479142
-0.00115407
-0.00058574
0.000399346
-0.0104679
-0.00716087
-0.00461404
-0.00333944
-0.00265155
-0.00210099
-0.0016374
-0.00129395
-0.00105182
-0.000872982
-0.000734906
-0.000628095
-0.000545524
-0.00049324
-0.000454376
-0.0005261
-0.000478106
-0.00115133
-0.000582965
0.000400554
-0.0104679
-0.00716084
-0.00461378
-0.0033387
-0.0026505
-0.00209946
-0.00163501
-0.00129113
-0.00104955
-0.000871466
-0.000733375
-0.000626003
-0.000542876
-0.000490689
-0.000452518
-0.000524849
-0.000477141
-0.00115001
-0.000581196
0.000401221
-0.0104679
-0.00716084
-0.00461378
-0.0033387
-0.0026505
-0.00209941
-0.00163496
-0.00129118
-0.00104965
-0.000871466
-0.000733275
-0.000625953
-0.000543026
-0.000490789
-0.000452418
-0.000524649
-0.000476941
-0.00115006
-0.000581246
0.000401271
-0.0104679
-0.00716087
-0.00461404
-0.00333944
-0.0026516
-0.00210094
-0.0016373
-0.00129405
-0.00105192
-0.000872832
-0.000734656
-0.000628094
-0.000545724
-0.000493341
-0.000454226
-0.0005258
-0.000477906
-0.00115128
-0.000582915
0.000400604
-0.0104672
-0.00715983
-0.00461258
-0.00333747
-0.00264938
-0.00209828
-0.00163422
-0.00129119
-0.00104991
-0.000871485
-0.000733315
-0.000626692
-0.000544692
-0.000492877
-0.000454178
-0.00052615
-0.000478941
-0.00115387
-0.000585326
0.00039966
-0.0104697
-0.0071644
-0.00461833
-0.00334375
-0.00265609
-0.00210528
-0.0016406
-0.00129669
-0.00105533
-0.000877076
-0.000738259
-0.000630548
-0.00054791
-0.000496085
-0.000457007
-0.000528664
-0.000480125
-0.00116006
-0.000589866
0.000399929
-0.0209322
-0.0143182
-0.00922812
-0.00668156
-0.00530741
-0.00420848
-0.00328286
-0.00259715
-0.0021156
-0.00176056
-0.00148473
-0.00127128
-0.00110862
-0.00100662
-0.000928705
-0.00106718
-0.000971778
-0.00230126
-0.00117393
0.000779917
-0.0104697
-0.00716445
-0.00461833
-0.0033437
-0.00265609
-0.00210533
-0.00164055
-0.00129654
-0.00105518
-0.000876876
-0.000737959
-0.000630149
-0.000547562
-0.000495637
-0.000456353
-0.000527865
-0.00047937
-0.00115985
-0.000589045
0.000400848
-2.31527e-06
-5.33696e-06
-6.67993e-06
-7.43769e-06
-8.32083e-06
-8.98279e-06
-9.09882e-06
-9.04265e-06
-9.21994e-06
-9.44166e-06
-9.51239e-06
-9.60191e-06
-9.72434e-06
-9.93076e-06
-1.01789e-05
-1.10953e-05
-1.17229e-05
-1.45571e-05
-1.60623e-05
-4.42733e-06
-1.23434e-06
-2.91252e-06
-3.64927e-06
-4.01329e-06
-4.22495e-06
-4.31406e-06
-4.29934e-06
-4.16777e-06
-4.19393e-06
-4.13303e-06
-4.09591e-06
-4.20361e-06
-4.09221e-06
-4.14694e-06
-4.34641e-06
-4.68706e-06
-4.89303e-06
-6.48968e-06
-6.82132e-06
-1.60145e-06
-1.0341e-06
-2.26702e-06
-2.67562e-06
-2.97811e-06
-3.27643e-06
-3.45257e-06
-3.49656e-06
-3.46764e-06
-3.48571e-06
-3.61001e-06
-3.65989e-06
-3.72058e-06
-3.79234e-06
-3.9057e-06
-4.04175e-06
-4.41894e-06
-4.7619e-06
-6.2236e-06
-6.26217e-06
-1.60576e-06
-9.94722e-07
-2.29543e-06
-2.81404e-06
-3.13269e-06
-3.54346e-06
-3.71374e-06
-3.74856e-06
-3.88001e-06
-3.86201e-06
-3.76459e-06
-3.88976e-06
-3.91674e-06
-3.96555e-06
-4.16627e-06
-4.17405e-06
-4.53695e-06
-4.88037e-06
-6.3007e-06
-6.41867e-06
-1.60138e-06
-9.94722e-07
-2.29543e-06
-2.81404e-06
-3.13269e-06
-3.54346e-06
-3.71371e-06
-3.7485e-06
-3.8801e-06
-3.8622e-06
-3.76446e-06
-3.88943e-06
-3.9169e-06
-3.96601e-06
-4.16618e-06
-4.17316e-06
-4.53615e-06
-4.88055e-06
-6.30183e-06
-6.42116e-06
-1.60314e-06
-1.0341e-06
-2.26702e-06
-2.67562e-06
-2.97811e-06
-3.27643e-06
-3.45255e-06
-3.49651e-06
-3.46774e-06
-3.48586e-06
-3.60976e-06
-3.6594e-06
-3.7208e-06
-3.79307e-06
-3.90559e-06
-4.04033e-06
-4.41747e-06
-4.7623e-06
-6.22618e-06
-6.26745e-06
-1.60915e-06
-1.23434e-06
-2.91253e-06
-3.64928e-06
-4.01326e-06
-4.22493e-06
-4.3141e-06
-4.29932e-06
-4.16763e-06
-4.19407e-06
-4.1334e-06
-4.09591e-06
-4.20311e-06
-4.09154e-06
-4.14637e-06
-4.34605e-06
-4.68687e-06
-4.89329e-06
-6.49045e-06
-6.82189e-06
-1.60156e-06
-2.31527e-06
-5.33695e-06
-6.67992e-06
-7.43769e-06
-8.32075e-06
-8.98271e-06
-9.09871e-06
-9.04249e-06
-9.21994e-06
-9.44192e-06
-9.51206e-06
-9.60088e-06
-9.72316e-06
-9.92948e-06
-1.01774e-05
-1.10943e-05
-1.17238e-05
-1.45608e-05
-1.60686e-05
-4.4311e-06
-0.0104697
-0.00716441
-0.00461828
-0.0033437
-0.00265604
-0.00210523
-0.0016405
-0.00129644
-0.00105503
-0.000876776
-0.000737908
-0.000630148
-0.00054751
-0.000495435
-0.000455902
-0.000527312
-0.000479168
-0.0011602
-0.000589543
0.00040065
-0.0104672
-0.00715983
-0.00461263
-0.00333752
-0.00264938
-0.00209828
-0.00163407
-0.00129089
-0.00104976
-0.000871484
-0.000733165
-0.000626242
-0.000544091
-0.000492375
-0.000453725
-0.000525485
-0.000477944
-0.00115295
-0.000583199
0.00040144
-1.23434e-06
-2.91253e-06
-3.64928e-06
-4.01327e-06
-4.22491e-06
-4.314e-06
-4.29926e-06
-4.16762e-06
-4.19391e-06
-4.13296e-06
-4.09528e-06
-4.20213e-06
-4.08979e-06
-4.14301e-06
-4.34098e-06
-4.68378e-06
-4.90001e-06
-6.50993e-06
-6.86295e-06
-1.63085e-06
1.75377e-07
8.23357e-08
-4.74863e-07
-6.94513e-07
-7.60244e-07
-8.38924e-07
-8.71361e-07
-8.75659e-07
-9.15609e-07
-8.59104e-07
-7.33107e-07
-7.57699e-07
-7.10492e-07
-6.60575e-07
-6.03691e-07
-5.14099e-07
-5.1931e-07
-8.5627e-07
-1.09881e-06
-2.24382e-07
4.83648e-08
-1.35144e-07
-5.78295e-07
-7.72235e-07
-7.72064e-07
-8.02005e-07
-7.98509e-07
-7.75645e-07
-7.31558e-07
-6.79597e-07
-6.37122e-07
-6.00764e-07
-6.10297e-07
-5.79495e-07
-5.01609e-07
-4.86741e-07
-5.11073e-07
-6.70153e-07
-8.45326e-07
-2.84124e-07
4.19804e-08
-1.28882e-07
-4.36696e-07
-6.81131e-07
-7.25276e-07
-7.13085e-07
-7.83608e-07
-7.74022e-07
-7.42606e-07
-7.04844e-07
-6.71645e-07
-6.42297e-07
-6.70309e-07
-6.37589e-07
-5.48227e-07
-5.86031e-07
-6.14074e-07
-6.56706e-07
-9.12531e-07
-3.54481e-07
4.19804e-08
-1.28882e-07
-4.36696e-07
-6.81132e-07
-7.25277e-07
-7.13083e-07
-7.83593e-07
-7.74013e-07
-7.42633e-07
-7.04888e-07
-6.71611e-07
-6.42162e-07
-6.70292e-07
-6.37932e-07
-5.48765e-07
-5.8621e-07
-6.13436e-07
-6.55478e-07
-9.10377e-07
-3.52891e-07
4.83649e-08
-1.35144e-07
-5.78295e-07
-7.72235e-07
-7.72066e-07
-8.02011e-07
-7.98504e-07
-7.75626e-07
-7.31586e-07
-6.7968e-07
-6.37062e-07
-6.00487e-07
-6.1024e-07
-5.80188e-07
-5.02778e-07
-4.87212e-07
-5.09777e-07
-6.67473e-07
-8.40481e-07
-2.8049e-07
1.75376e-07
8.23333e-08
-4.74867e-07
-6.94516e-07
-7.60249e-07
-8.38943e-07
-8.71347e-07
-8.75554e-07
-9.15641e-07
-8.59494e-07
-7.33383e-07
-7.57262e-07
-7.09873e-07
-6.61089e-07
-6.05462e-07
-5.15318e-07
-5.17834e-07
-8.52214e-07
-1.09061e-06
-2.18121e-07
-1.23433e-06
-2.91253e-06
-3.64927e-06
-4.01326e-06
-4.22488e-06
-4.31395e-06
-4.29918e-06
-4.16752e-06
-4.19375e-06
-4.13269e-06
-4.09507e-06
-4.20257e-06
-4.09059e-06
-4.14286e-06
-4.34002e-06
-4.68326e-06
-4.90097e-06
-6.51198e-06
-6.86634e-06
-1.63323e-06
-0.0104672
-0.00715979
-0.00461253
-0.00333747
-0.00264938
-0.00209823
-0.00163397
-0.00129084
-0.00104971
-0.000871334
-0.000733015
-0.000626191
-0.000544091
-0.000492275
-0.000453476
-0.000525287
-0.000478144
-0.00115369
-0.000584346
0.000400793
-0.0104679
-0.00716091
-0.00461404
-0.00333939
-0.00265165
-0.00210099
-0.00163715
-0.00129365
-0.00105172
-0.000873032
-0.000734706
-0.000627494
-0.00054486
-0.00049284
-0.000453989
-0.000525149
-0.000476505
-0.00114978
-0.000579765
0.000403105
-1.0341e-06
-2.26703e-06
-2.67562e-06
-2.97809e-06
-3.27646e-06
-3.45254e-06
-3.49627e-06
-3.46732e-06
-3.48578e-06
-3.61028e-06
-3.65938e-06
-3.71903e-06
-3.79044e-06
-3.90373e-06
-4.03922e-06
-4.41652e-06
-4.76315e-06
-6.23091e-06
-6.27617e-06
-1.61387e-06
4.83648e-08
-1.35146e-07
-5.78297e-07
-7.72233e-07
-7.72084e-07
-8.02047e-07
-7.98468e-07
-7.75485e-07
-7.31497e-07
-6.79834e-07
-6.37424e-07
-6.00785e-07
-6.10433e-07
-5.80826e-07
-5.04177e-07
-4.88039e-07
-5.06723e-07
-6.58914e-07
-8.20635e-07
-2.64816e-07
-1.93647e-08
-1.06015e-07
-1.66477e-07
-1.34909e-07
-1.15532e-07
-1.17724e-07
-1.31187e-07
-1.32431e-07
-1.55218e-07
-1.95221e-07
-2.23806e-07
-2.51836e-07
-2.78284e-07
-2.99744e-07
-3.22373e-07
-3.45927e-07
-3.91769e-07
-3.809e-07
-4.63021e-07
-2.71649e-07
-1.74579e-08
-1.10381e-07
-2.11801e-07
-2.84605e-07
-3.07544e-07
-3.60987e-07
-3.76e-07
-3.90902e-07
-4.27293e-07
-4.3431e-07
-4.39981e-07
-4.44573e-07
-4.48481e-07
-4.50741e-07
-4.90605e-07
-4.95495e-07
-4.61971e-07
-4.30355e-07
-6.13916e-07
-3.55358e-07
-1.74579e-08
-1.10382e-07
-2.11802e-07
-2.84606e-07
-3.07544e-07
-3.60987e-07
-3.75999e-07
-3.90906e-07
-4.27298e-07
-4.34303e-07
-4.39965e-07
-4.44577e-07
-4.48514e-07
-4.50765e-07
-4.90566e-07
-4.95412e-07
-4.61908e-07
-4.3039e-07
-6.14094e-07
-3.55545e-07
-1.93647e-08
-1.06015e-07
-1.66477e-07
-1.3491e-07
-1.15534e-07
-1.17724e-07
-1.31184e-07
-1.32437e-07
-1.55236e-07
-1.95225e-07
-2.23785e-07
-2.51846e-07
-2.78359e-07
-2.99822e-07
-3.22347e-07
-3.45795e-07
-3.91645e-07
-3.80947e-07
-4.63313e-07
-2.71992e-07
4.83644e-08
-1.35145e-07
-5.78299e-07
-7.72239e-07
-7.72095e-07
-8.02056e-07
-7.98463e-07
-7.75454e-07
-7.31533e-07
-6.79968e-07
-6.37377e-07
-6.00392e-07
-6.10097e-07
-5.81221e-07
-5.04899e-07
-4.88049e-07
-5.05549e-07
-6.57417e-07
-8.1834e-07
-2.6303e-07
-1.0341e-06
-2.26702e-06
-2.67561e-06
-2.97809e-06
-3.27638e-06
-3.45244e-06
-3.49625e-06
-3.46735e-06
-3.48569e-06
-3.60985e-06
-3.65913e-06
-3.6247e-06
-3.79068e-06
-4.00253e-06
-4.03845e-06
-4.41792e-06
-4.76761e-06
-6.23667e-06
-6.28503e-06
-1.6203e-06
-0.0104678
-0.00716087
-0.00461404
-0.00333934
-0.00265155
-0.00210094
-0.0016371
-0.0012936
-0.00105172
-0.000872932
-0.000734506
-0.000627444
-0.000544907
-0.00049279
-0.000453989
-0.000525549
-0.000477405
-0.00115088
-0.000581266
0.000402154
-0.0104679
-0.00716089
-0.00461378
-0.00333865
-0.0026506
-0.00209951
-0.00163476
-0.00129078
-0.0010494
-0.000871516
-0.000733225
-0.000625503
-0.000542376
-0.000490339
-0.000451917
-0.000523548
-0.00047529
-0.00114841
-0.000578046
0.000403773
-9.94723e-07
-2.29543e-06
-2.81405e-06
-3.13271e-06
-3.54348e-06
-3.7137e-06
-3.74827e-06
-3.87958e-06
-3.86198e-06
-3.76492e-06
-3.88948e-06
-3.91565e-06
-3.96402e-06
-4.164e-06
-4.17065e-06
-4.53348e-06
-4.8811e-06
-6.30787e-06
-6.43304e-06
-1.61035e-06
4.19803e-08
-1.28883e-07
-4.36694e-07
-6.81128e-07
-7.25302e-07
-7.13137e-07
-7.83581e-07
-7.73868e-07
-7.42528e-07
-7.05039e-07
-6.71899e-07
-6.42302e-07
-6.70525e-07
-6.39134e-07
-5.51075e-07
-5.87476e-07
-6.0957e-07
-6.44993e-07
-8.86774e-07
-3.34403e-07
-1.74579e-08
-1.10382e-07
-2.11801e-07
-2.84604e-07
-3.07543e-07
-3.60988e-07
-3.75989e-07
-3.90877e-07
-4.2729e-07
-4.34367e-07
-4.40067e-07
-4.44615e-07
-4.48456e-07
-4.50721e-07
-4.90661e-07
-4.95601e-07
-4.61998e-07
-4.30189e-07
-6.13377e-07
-3.54604e-07
-1.43916e-08
-9.57491e-08
-2.03134e-07
-3.40891e-07
-4.14148e-07
-4.3621e-07
-5.0034e-07
-5.51169e-07
-5.53855e-07
-5.53717e-07
-5.5183e-07
-5.48731e-07
-5.44963e-07
-5.41108e-07
-5.84552e-07
-5.8109e-07
-5.77915e-07
-4.80378e-07
-6.62366e-07
-3.88453e-07
-1.43916e-08
-9.57491e-08
-2.03134e-07
-3.40892e-07
-4.14149e-07
-4.36212e-07
-5.00339e-07
-5.51164e-07
-5.5385e-07
-5.53717e-07
-5.51836e-07
-5.48745e-07
-5.44969e-07
-5.41085e-07
-5.84492e-07
-5.8104e-07
-5.77938e-07
-4.80456e-07
-6.62599e-07
-3.88615e-07
-1.7458e-08
-1.10382e-07
-2.11802e-07
-2.84606e-07
-3.07544e-07
-3.6099e-07
-3.75994e-07
-3.90878e-07
-4.27283e-07
-4.34364e-07
-4.40083e-07
-4.44656e-07
-4.4849e-07
-4.50692e-07
-4.9054e-07
-4.95473e-07
-4.62002e-07
-4.30365e-07
-6.13877e-07
-3.54979e-07
4.198e-08
-1.28882e-07
-4.36697e-07
-6.81135e-07
-7.25307e-07
-7.13149e-07
-7.83614e-07
-7.7385e-07
-7.42414e-07
-7.04936e-07
-6.71889e-07
-6.42409e-07
-6.70847e-07
-6.39567e-07
-5.50996e-07
-5.86346e-07
-6.07857e-07
-6.44113e-07
-8.86944e-07
-3.34585e-07
-9.94719e-07
-2.29543e-06
-2.81405e-06
-3.13268e-06
-3.54342e-06
-3.71361e-06
-3.74822e-06
-3.87963e-06
-3.86201e-06
-3.76476e-06
-3.88944e-06
-3.91558e-06
-3.9613e-06
-4.16317e-06
-4.171e-06
-4.53695e-06
-4.88703e-06
-6.31316e-06
-6.439e-06
-1.61441e-06
-0.0104679
-0.00716085
-0.00461373
-0.0033386
-0.0026505
-0.00209946
-0.00163471
-0.00129068
-0.00104935
-0.000871466
-0.000733225
-0.000625503
-0.000542276
-0.000490189
-0.000452067
-0.000524298
-0.00047644
-0.00114956
-0.000579561
0.000402758
-0.0104679
-0.00716089
-0.00461378
-0.00333865
-0.0026506
-0.00209946
-0.00163471
-0.00129083
-0.00104945
-0.000871466
-0.000733175
-0.000625553
-0.000542476
-0.000490289
-0.000451717
-0.000523448
-0.00047539
-0.00114876
-0.000578796
0.000403272
-9.94723e-07
-2.29543e-06
-2.81405e-06
-3.13271e-06
-3.54349e-06
-3.71367e-06
-3.74827e-06
-3.87975e-06
-3.86207e-06
-3.76465e-06
-3.88931e-06
-3.9159e-06
-3.9643e-06
-4.16375e-06
-4.16961e-06
-4.5328e-06
-4.8821e-06
-6.31051e-06
-6.43811e-06
-1.61391e-06
4.19803e-08
-1.28883e-07
-4.36695e-07
-6.81132e-07
-7.25304e-07
-7.13129e-07
-7.83556e-07
-7.73847e-07
-7.42572e-07
-7.05138e-07
-6.71915e-07
-6.4218e-07
-6.70466e-07
-6.39326e-07
-5.51302e-07
-5.87229e-07
-6.08563e-07
-6.43721e-07
-8.84851e-07
-3.32959e-07
-1.74579e-08
-1.10381e-07
-2.118e-07
-2.84602e-07
-3.07541e-07
-3.60988e-07
-3.75999e-07
-3.90911e-07
-4.27332e-07
-4.34366e-07
-4.40023e-07
-4.4459e-07
-4.48473e-07
-4.50703e-07
-4.90505e-07
-4.95356e-07
-4.61808e-07
-4.30238e-07
-6.13781e-07
-3.55068e-07
-1.43915e-08
-9.57489e-08
-2.03134e-07
-3.4089e-07
-4.14148e-07
-4.36212e-07
-5.00345e-07
-5.5118e-07
-5.53866e-07
-5.53718e-07
-5.51826e-07
-5.4874e-07
-5.44967e-07
-5.41053e-07
-5.84394e-07
-5.80896e-07
-5.77828e-07
-4.80453e-07
-6.62794e-07
-3.88834e-07
-1.43915e-08
-9.57489e-08
-2.03134e-07
-3.40891e-07
-4.14149e-07
-4.36212e-07
-5.00342e-07
-5.51176e-07
-5.53868e-07
-5.53723e-07
-5.51828e-07
-5.4874e-07
-5.44966e-07
-5.41037e-07
-5.8436e-07
-5.80874e-07
-5.7786e-07
-4.8052e-07
-6.62977e-07
-3.88956e-07
-1.74579e-08
-1.10381e-07
-2.11801e-07
-2.84602e-07
-3.07542e-07
-3.60991e-07
-3.76001e-07
-3.90909e-07
-4.27332e-07
-4.34374e-07
-4.40031e-07
-4.44597e-07
-4.48474e-07
-4.50682e-07
-4.90442e-07
-4.95307e-07
-4.61859e-07
-4.304e-07
-6.14195e-07
-3.55351e-07
4.19799e-08
-1.28883e-07
-4.36698e-07
-6.81137e-07
-7.253e-07
-7.13138e-07
-7.8359e-07
-7.7383e-07
-7.42474e-07
-7.051e-07
-6.71976e-07
-6.42233e-07
-6.70575e-07
-6.39558e-07
-5.51266e-07
-5.86435e-07
-6.07313e-07
-6.43149e-07
-8.85283e-07
-3.3332e-07
-9.94719e-07
-2.29543e-06
-2.81404e-06
-3.13266e-06
-3.54343e-06
-3.71365e-06
-3.74825e-06
-3.87975e-06
-3.86204e-06
-3.76451e-06
-3.88915e-06
-3.91586e-06
-3.96186e-06
-4.16299e-06
-4.1697e-06
-4.53564e-06
-4.88729e-06
-6.31542e-06
-6.44372e-06
-1.61779e-06
-0.0104679
-0.00716085
-0.00461373
-0.00333865
-0.0026505
-0.00209936
-0.00163471
-0.00129078
-0.0010494
-0.000871466
-0.000733175
-0.000625453
-0.000542326
-0.000490139
-0.000451767
-0.000524097
-0.00047649
-0.00114991
-0.000580197
0.000402421
-0.0104679
-0.00716086
-0.00461404
-0.00333944
-0.00265165
-0.00210099
-0.0016371
-0.00129365
-0.00105182
-0.000873032
-0.000734556
-0.000627544
-0.000545074
-0.00049269
-0.000453475
-0.000524749
-0.000476705
-0.00115063
-0.000581115
0.000402303
-1.0341e-06
-2.26702e-06
-2.67562e-06
-2.97813e-06
-3.27646e-06
-3.45251e-06
-3.49627e-06
-3.46743e-06
-3.4858e-06
-3.60995e-06
-3.65916e-06
-3.71948e-06
-3.79118e-06
-3.90315e-06
-4.03714e-06
-4.41496e-06
-4.76468e-06
-6.23591e-06
-6.28593e-06
-1.62063e-06
4.83648e-08
-1.35145e-07
-5.78295e-07
-7.72236e-07
-7.72093e-07
-8.02054e-07
-7.98449e-07
-7.7544e-07
-7.31524e-07
-6.79967e-07
-6.37451e-07
-6.00576e-07
-6.10359e-07
-5.8128e-07
-5.04774e-07
-4.87747e-07
-5.04812e-07
-6.56252e-07
-8.16362e-07
-2.6161e-07
-1.93647e-08
-1.06015e-07
-1.66476e-07
-1.34908e-07
-1.15534e-07
-1.17724e-07
-1.31182e-07
-1.32449e-07
-1.55263e-07
-1.95232e-07
-2.23762e-07
-2.51838e-07
-2.78389e-07
-2.99814e-07
-3.22196e-07
-3.45495e-07
-3.91294e-07
-3.80805e-07
-4.63473e-07
-2.72348e-07
-1.74579e-08
-1.10381e-07
-2.11801e-07
-2.84605e-07
-3.07545e-07
-3.60989e-07
-3.75999e-07
-3.90903e-07
-4.27295e-07
-4.34309e-07
-4.39992e-07
-4.44625e-07
-4.4855e-07
-4.50723e-07
-4.9038e-07
-4.95129e-07
-4.61721e-07
-4.30407e-07
-6.14517e-07
-3.55972e-07
-1.74579e-08
-1.10381e-07
-2.11801e-07
-2.84606e-07
-3.07546e-07
-3.6099e-07
-3.75996e-07
-3.90902e-07
-4.27305e-07
-4.34313e-07
-4.39975e-07
-4.44606e-07
-4.48563e-07
-4.50751e-07
-4.9038e-07
-4.95091e-07
-4.61675e-07
-4.30422e-07
-6.14627e-07
-3.56101e-07
-1.93647e-08
-1.06015e-07
-1.66476e-07
-1.3491e-07
-1.15535e-07
-1.17726e-07
-1.31178e-07
-1.3245e-07
-1.55289e-07
-1.95259e-07
-2.23738e-07
-2.51794e-07
-2.78399e-07
-2.99884e-07
-3.22237e-07
-3.45458e-07
-3.91223e-07
-3.80812e-07
-4.63636e-07
-2.72578e-07
4.83644e-08
-1.35145e-07
-5.78299e-07
-7.7224e-07
-7.72092e-07
-8.02054e-07
-7.98454e-07
-7.75404e-07
-7.31534e-07
-6.80137e-07
-6.37493e-07
-6.00137e-07
-6.0976e-07
-5.81457e-07
-5.05669e-07
-4.88362e-07
-5.04349e-07
-6.55123e-07
-8.14296e-07
-2.60036e-07
-1.0341e-06
-2.26702e-06
-2.67561e-06
-2.97809e-06
-3.27639e-06
-3.45244e-06
-3.49625e-06
-3.4674e-06
-3.48578e-06
-3.60966e-06
-3.65884e-06
-3.62527e-06
-3.7919e-06
-4.00229e-06
-4.03575e-06
-4.41475e-06
-4.76737e-06
-6.24062e-06
-6.29401e-06
-1.62643e-06
-0.0104678
-0.00716087
-0.00461404
-0.00333934
-0.00265155
-0.00210094
-0.0016371
-0.00129365
-0.00105177
-0.000872882
-0.000734456
-0.000627594
-0.000545107
-0.00049269
-0.000453389
-0.000524848
-0.000477255
-0.00115148
-0.000582465
0.000401452
-0.0104672
-0.00715982
-0.00461263
-0.00333747
-0.00264933
-0.00209833
-0.00163407
-0.00129084
-0.00104976
-0.000871534
-0.000733215
-0.000626241
-0.000544091
-0.000492276
-0.000453477
-0.000525237
-0.000477943
-0.00115344
-0.000583941
0.000401096
-1.23434e-06
-2.91253e-06
-3.64928e-06
-4.01326e-06
-4.2249e-06
-4.31404e-06
-4.29921e-06
-4.16744e-06
-4.19397e-06
-4.13328e-06
-4.09516e-06
-4.20149e-06
-4.08938e-06
-4.14364e-06
-4.34272e-06
-4.68515e-06
-4.89952e-06
-6.5075e-06
-6.85759e-06
-1.62695e-06
1.75376e-07
8.23331e-08
-4.74868e-07
-6.94508e-07
-7.60237e-07
-8.38972e-07
-8.71378e-07
-8.75489e-07
-9.15547e-07
-8.59475e-07
-7.33246e-07
-7.56852e-07
-7.09698e-07
-6.6195e-07
-6.07239e-07
-5.16469e-07
-5.16309e-07
-8.47966e-07
-1.08263e-06
-2.12389e-07
4.83642e-08
-1.35147e-07
-5.78302e-07
-7.72235e-07
-7.72064e-07
-8.02032e-07
-7.9847e-07
-7.75481e-07
-7.31581e-07
-6.79932e-07
-6.37048e-07
-5.99818e-07
-6.09748e-07
-5.812e-07
-5.05111e-07
-4.88652e-07
-5.07858e-07
-6.62331e-07
-8.30942e-07
-2.73681e-07
4.19796e-08
-1.28885e-07
-4.36701e-07
-6.81126e-07
-7.25267e-07
-7.13115e-07
-7.83614e-07
-7.73929e-07
-7.42595e-07
-7.04995e-07
-6.71447e-07
-6.41491e-07
-6.70117e-07
-6.39547e-07
-5.51574e-07
-5.87361e-07
-6.10226e-07
-6.48616e-07
-8.98202e-07
-3.44123e-07
4.19796e-08
-1.28884e-07
-4.36701e-07
-6.81128e-07
-7.25267e-07
-7.13113e-07
-7.8361e-07
-7.739e-07
-7.42577e-07
-7.05074e-07
-6.71554e-07
-6.41473e-07
-6.70008e-07
-6.39571e-07
-5.51792e-07
-5.87463e-07
-6.09814e-07
-6.47759e-07
-8.96497e-07
-3.42833e-07
4.83642e-08
-1.35146e-07
-5.78302e-07
-7.72233e-07
-7.7206e-07
-8.02035e-07
-7.98475e-07
-7.75437e-07
-7.31533e-07
-6.80047e-07
-6.37251e-07
-5.99804e-07
-6.09556e-07
-5.81269e-07
-5.05569e-07
-4.88862e-07
-5.0695e-07
-6.6039e-07
-8.2703e-07
-2.70699e-07
1.75376e-07
8.23318e-08
-4.74869e-07
-6.94506e-07
-7.60244e-07
-8.39001e-07
-8.71401e-07
-8.75383e-07
-9.15439e-07
-8.59714e-07
-7.33627e-07
-7.56709e-07
-7.0916e-07
-6.6211e-07
-6.08445e-07
-5.17346e-07
-5.14931e-07
-8.44311e-07
-1.075e-06
-2.06528e-07
-1.23434e-06
-2.91253e-06
-3.64926e-06
-4.01326e-06
-4.22487e-06
-4.31396e-06
-4.29909e-06
-4.16735e-06
-4.19376e-06
-4.13286e-06
-4.09535e-06
-4.20296e-06
-4.09113e-06
-4.14326e-06
-4.33951e-06
-4.68158e-06
-4.89836e-06
-6.50946e-06
-6.86276e-06
-1.6306e-06
-0.0104672
-0.00715978
-0.00461258
-0.00333747
-0.00264928
-0.00209823
-0.00163402
-0.00129079
-0.00104966
-0.000871384
-0.000733165
-0.000626491
-0.000544391
-0.000492176
-0.000452827
-0.000524537
-0.000477842
-0.00115404
-0.000585236
0.000400249
-0.0104697
-0.0071644
-0.00461833
-0.00334375
-0.00265609
-0.00210533
-0.00164055
-0.00129644
-0.00105513
-0.000876976
-0.00073801
-0.000630051
-0.000547462
-0.000495631
-0.000456393
-0.000527855
-0.000479319
-0.00115986
-0.00058892
0.00040098
-2.31527e-06
-5.33695e-06
-6.67992e-06
-7.43771e-06
-8.32074e-06
-8.98265e-06
-9.09857e-06
-9.04228e-06
-9.2197e-06
-9.44201e-06
-9.5138e-06
-9.60382e-06
-9.72424e-06
-9.92558e-06
-1.01689e-05
-1.10863e-05
-1.17229e-05
-1.45683e-05
-1.60839e-05
-4.44152e-06
-1.23433e-06
-2.91253e-06
-3.64927e-06
-4.01328e-06
-4.22489e-06
-4.31391e-06
-4.29916e-06
-4.16755e-06
-4.19379e-06
-4.13336e-06
-4.09742e-06
-4.20611e-06
-4.09224e-06
-4.14053e-06
-4.33488e-06
-4.67785e-06
-4.89462e-06
-6.50265e-06
-6.84382e-06
-1.61622e-06
-1.0341e-06
-2.26702e-06
-2.67562e-06
-2.97811e-06
-3.27636e-06
-3.45233e-06
-3.49626e-06
-3.46752e-06
-3.48574e-06
-3.61036e-06
-3.66127e-06
-3.72278e-06
-3.79218e-06
-3.89927e-06
-4.03045e-06
-4.41062e-06
-4.76484e-06
-6.23797e-06
-6.28652e-06
-1.62122e-06
-9.94723e-07
-2.29544e-06
-2.81405e-06
-3.13267e-06
-3.54338e-06
-3.71354e-06
-3.74827e-06
-3.87987e-06
-3.86202e-06
-3.76507e-06
-3.89141e-06
-3.919e-06
-3.96504e-06
-4.15928e-06
-4.16248e-06
-4.52912e-06
-4.88432e-06
-6.31573e-06
-6.44356e-06
-1.61745e-06
-9.94723e-07
-2.29544e-06
-2.81405e-06
-3.13267e-06
-3.54339e-06
-3.71354e-06
-3.74826e-06
-3.87991e-06
-3.86213e-06
-3.76492e-06
-3.89109e-06
-3.9192e-06
-3.96555e-06
-4.1593e-06
-4.16154e-06
-4.52772e-06
-4.88374e-06
-6.31681e-06
-6.44695e-06
-1.61993e-06
-1.0341e-06
-2.26702e-06
-2.67561e-06
-2.97809e-06
-3.27638e-06
-3.45237e-06
-3.49626e-06
-3.46763e-06
-3.48594e-06
-3.61016e-06
-3.66073e-06
-3.72281e-06
-3.79291e-06
-3.89929e-06
-4.02858e-06
-4.40793e-06
-4.76393e-06
-6.24023e-06
-6.29355e-06
-1.62638e-06
-1.23433e-06
-2.91253e-06
-3.64927e-06
-4.01327e-06
-4.22489e-06
-4.31392e-06
-4.29914e-06
-4.16755e-06
-4.19399e-06
-4.13358e-06
-4.09711e-06
-4.20541e-06
-4.09199e-06
-4.1406e-06
-4.33422e-06
-4.67635e-06
-4.89317e-06
-6.50269e-06
-6.84591e-06
-1.61762e-06
-2.31527e-06
-5.33695e-06
-6.6799e-06
-7.43766e-06
-8.32068e-06
-8.98257e-06
-9.09865e-06
-9.04241e-06
-9.2198e-06
-9.44212e-06
-9.51312e-06
-9.60252e-06
-9.72311e-06
-9.92465e-06
-1.01681e-05
-1.10858e-05
-1.17241e-05
-1.45723e-05
-1.60925e-05
-4.44795e-06
-0.0104697
-0.00716441
-0.00461828
-0.0033437
-0.00265604
-0.00210523
-0.0016405
-0.00129644
-0.00105503
-0.000876826
-0.000738059
-0.000630249
-0.00054756
-0.000495381
-0.000455694
-0.000527157
-0.00047912
-0.00116036
-0.000590021
0.000400329
-0.0209322
-0.0143182
-0.00922817
-0.00668156
-0.00530731
-0.00420843
-0.00328286
-0.00259725
-0.00211575
-0.00176066
-0.00148507
-0.00127192
-0.00110887
-0.00100567
-0.000926664
-0.00106563
-0.000972024
-0.00230348
-0.00117751
0.00077796
-0.0104697
-0.00716441
-0.00461828
-0.0033437
-0.00265599
-0.00210518
-0.0016406
-0.00129669
-0.00105523
-0.000876976
-0.000738559
-0.000631199
-0.000548011
-0.000494684
-0.000454547
-0.000526709
-0.000479979
-0.00116181
-0.000592772
0.000398274
-0.0104672
-0.00715979
-0.00461258
-0.00333747
-0.00264928
-0.00209818
-0.00163412
-0.00129104
-0.00104981
-0.000871634
-0.000733815
-0.000627192
-0.000544442
-0.000491427
-0.000451927
-0.000524487
-0.000478889
-0.00115523
-0.000587174
0.00039876
-0.0104678
-0.00716087
-0.00461404
-0.00333939
-0.0026515
-0.00210084
-0.00163725
-0.00129385
-0.00105187
-0.000873232
-0.000735256
-0.000628345
-0.000545125
-0.000491691
-0.000452125
-0.000524398
-0.000477904
-0.00115258
-0.000584264
0.000400153
-0.0104679
-0.00716085
-0.00461373
-0.0033386
-0.00265045
-0.00209941
-0.00163491
-0.00129103
-0.0010495
-0.000871666
-0.000733825
-0.000626303
-0.000542427
-0.00048909
-0.000450217
-0.000523097
-0.000476939
-0.00115131
-0.000582595
0.00040077
-0.0104679
-0.00716085
-0.00461373
-0.0033386
-0.00265045
-0.00209936
-0.00163486
-0.00129108
-0.0010496
-0.000871666
-0.000733775
-0.000626303
-0.000542527
-0.00048909
-0.000449968
-0.000522797
-0.000476688
-0.00115136
-0.000582895
0.00040062
-0.0104678
-0.00716087
-0.00461404
-0.00333934
-0.0026515
-0.00210089
-0.00163725
-0.0012939
-0.00105197
-0.000873182
-0.000735106
-0.000628345
-0.000545225
-0.000491641
-0.000451676
-0.000523698
-0.000477403
-0.00115263
-0.000584863
0.000399753
-0.0104672
-0.00715978
-0.00461258
-0.00333747
-0.00264923
-0.00209818
-0.00163417
-0.00129109
-0.00104991
-0.000871684
-0.000733765
-0.000627092
-0.000544293
-0.000491177
-0.000451527
-0.000523885
-0.000478338
-0.00115513
-0.000587422
0.000398611
-0.0104697
-0.00716441
-0.00461828
-0.0033437
-0.00265599
-0.00210518
-0.0016406
-0.00129664
-0.00105528
-0.000877226
-0.000738609
-0.000630798
-0.00054756
-0.000494533
-0.000454597
-0.00052661
-0.00047953
-0.00116126
-0.000591922
0.000398874
-0.0209322
-0.0143181
-0.00922807
-0.00668161
-0.00530731
-0.00420833
-0.00328286
-0.0025972
-0.0021156
-0.00176071
-0.00148487
-0.00127118
-0.00110802
-0.00100537
-0.00092726
-0.00106638
-0.000972073
-0.00230285
-0.00117637
0.000778674
)
;

boundaryField
{
    inlet
    {
        type            calculated;
        value           nonuniform List<scalar> 
100
(
-0.0242086
-0.0121069
-0.0121048
-0.0121052
-0.0121053
-0.0121053
-0.0121052
-0.0121048
-0.0121069
-0.0242086
-0.0121069
-2.40287e-06
-1.16676e-06
-1.07957e-06
-1.05211e-06
-1.05211e-06
-1.07957e-06
-1.16677e-06
-2.40287e-06
-0.0121068
-0.0121048
-1.16676e-06
3.32293e-07
1.40924e-07
1.29432e-07
1.29432e-07
1.40924e-07
3.32292e-07
-1.16676e-06
-0.0121047
-0.0121053
-1.07957e-06
1.40924e-07
8.8371e-09
5.63605e-09
5.63606e-09
8.83712e-09
1.40923e-07
-1.07957e-06
-0.0121052
-0.0121053
-1.05211e-06
1.29432e-07
5.63606e-09
3.59437e-09
3.59438e-09
5.63607e-09
1.29431e-07
-1.05211e-06
-0.0121053
-0.0121053
-1.05211e-06
1.29432e-07
5.63604e-09
3.59436e-09
3.59436e-09
5.63605e-09
1.29431e-07
-1.05211e-06
-0.0121053
-0.0121053
-1.07957e-06
1.40925e-07
8.83716e-09
5.63602e-09
5.63603e-09
8.83714e-09
1.40923e-07
-1.07957e-06
-0.0121052
-0.0121048
-1.16677e-06
3.32292e-07
1.40923e-07
1.2943e-07
1.29431e-07
1.40923e-07
3.32291e-07
-1.16676e-06
-0.0121048
-0.0121069
-2.40287e-06
-1.16676e-06
-1.07957e-06
-1.05211e-06
-1.05211e-06
-1.07957e-06
-1.16676e-06
-2.40287e-06
-0.0121068
-0.0242086
-0.0121068
-0.0121047
-0.0121052
-0.0121053
-0.0121053
-0.0121052
-0.0121048
-0.0121068
-0.0242086
)
;
    }
    outlet
    {
        type            calculated;
        value           nonuniform List<scalar> 
100
(
-5.62704e-06
-6.21486e-06
-1.85316e-06
-1.02211e-06
-1.50016e-06
-1.50043e-06
-1.02311e-06
-1.8533e-06
-6.21422e-06
-5.62685e-06
-6.22186e-06
3.65439e-06
1.08758e-06
6.0425e-07
8.84012e-07
8.84132e-07
6.04779e-07
1.08765e-06
3.65295e-06
-6.22139e-06
-1.85629e-06
1.08814e-06
3.24265e-07
1.79775e-07
2.62777e-07
2.6291e-07
1.80088e-07
3.24356e-07
1.08733e-06
-1.85506e-06
-1.01808e-06
6.00877e-07
1.78589e-07
9.85398e-08
1.44257e-07
1.4447e-07
9.89232e-08
1.78931e-07
6.01145e-07
-1.01822e-06
-1.49306e-06
8.7828e-07
2.60829e-07
1.44209e-07
2.10776e-07
2.11062e-07
1.44767e-07
2.61465e-07
8.79442e-07
-1.49439e-06
-1.49475e-06
8.79463e-07
2.61389e-07
1.44667e-07
2.11476e-07
2.11689e-07
1.45111e-07
2.6194e-07
8.80632e-07
-1.49624e-06
-1.02127e-06
6.03138e-07
1.79599e-07
9.9329e-08
1.45479e-07
1.4561e-07
9.95828e-08
1.79838e-07
6.0347e-07
-1.02203e-06
-1.85692e-06
1.08846e-06
3.24482e-07
1.80054e-07
2.63206e-07
2.63329e-07
1.80332e-07
3.24542e-07
1.0877e-06
-1.85632e-06
-6.21978e-06
3.65263e-06
1.08692e-06
6.04007e-07
8.83753e-07
8.83858e-07
6.04512e-07
1.08706e-06
3.65114e-06
-6.21896e-06
-5.62549e-06
-6.21482e-06
-1.85311e-06
-1.02253e-06
-1.50085e-06
-1.50106e-06
-1.02343e-06
-1.85371e-06
-6.21444e-06
-5.62444e-06
)
;
    }
    walls
    {
        type            calculated;
        value           nonuniform List<scalar> 
800
(
-0.0313962
-0.0209371
-0.0209331
-0.0209339
-0.020934
-0.020934
-0.0209339
-0.0209331
-0.0209371
-0.0313962
-0.021473
-0.0143243
-0.0143169
-0.0143181
-0.0143181
-0.0143181
-0.014318
-0.0143169
-0.0143242
-0.021473
-0.0138378
-0.00923206
-0.00922255
-0.00922401
-0.00922376
-0.00922376
-0.00922401
-0.00922255
-0.00923206
-0.0138377
-0.0100182
-0.00668345
-0.00667283
-0.00667473
-0.0066739
-0.0066739
-0.00667483
-0.00667273
-0.00668355
-0.0100181
-0.00795731
-0.00530873
-0.00529698
-0.00529934
-0.00529819
-0.00529819
-0.00529934
-0.00529688
-0.00530873
-0.00795726
-0.00630982
-0.00420791
-0.00419532
-0.00419846
-0.0041966
-0.0041965
-0.00419846
-0.00419542
-0.00420791
-0.00630967
-0.00492234
-0.00327941
-0.00326763
-0.00327148
-0.00326794
-0.00326784
-0.00327139
-0.00326763
-0.00327941
-0.00492219
-0.00389487
-0.00259251
-0.00258202
-0.00258526
-0.00258079
-0.00258089
-0.00258526
-0.00258192
-0.00259231
-0.00389472
-0.00317352
-0.00211074
-0.00210044
-0.00210211
-0.00209875
-0.00209885
-0.00210231
-0.00210044
-0.00211064
-0.00317352
-0.00264165