# Region type : patch inlet
# Faces       : 100
# Area        : 1.000000e+00
# Scale factor: 1.000000e+00
# Time        	average(phi)
0             
138           	-1.000000e-02
